 **********************************************************************
                          MRCC program system
 **********************************************************************
 
                              Written by
  Mihaly Kallay, Zoltan Rolik, Jozsef Csontos, Peter Nagy, Gyula Samu,
      David Mester, Jozsef Csoka, Bernat Szabo, Istvan Ladjanszki,
       Lorant Szegedy, Bence Ladoczki, Klara Petrov, Mate Farkas,
                    Pal D. Mezei, and Bence Hegely
 
        Department of Physical Chemistry and Materials Science
            Budapest University of Technology and Economics
                  Budapest P.O.Box 91, H-1521 Hungary
 
                              www.mrcc.hu
 
                       Release date: May 23, 2018

 ************************ 2018-12-17 13:39:48 *************************
 Executing minp...

 Reading input from MINP...
 
 Input file:
 
basis=6-31G*
scftype=RHF
calc=CCSDT(Q)
mem=100GB
scfiguess=sad
charge=0
mult=1
scfmaxit=300
scftol=8
cctol=6

geom=xyz
3

O       -3.4021083711      4.5088324369      0.0250465687                 
H       -2.4127820206      4.5121379506     -0.0176832230                 
H       -3.6914737776      4.5818752648     -0.9191651640                 
 
 
 Checking keyword combinations...
 
 Keywords:
 
 active=none
 agrid=ld0006-ld0590
 basis=6-31g*
 basis_sm=none
 basopt=off
 bfbasis=none
 bpcompo=0.985
 bpcompv=0.98
 bpdfo=0.985
 bpocc=0.985
 bppdo=0.985
 bppdv=0.98
 bpedo=0.985
 bpedv=0.98
 calc=ccsdt(q)
 ccmaxit=50
 ccprog=mrcc
 cctol=6
 charge=0
 cialg=disk
 ciguess=off
 cmpgrp=auto
 core=frozen
 corembed=off
 dboc=off
 dendec=cholesky
 dens=0
 dfalg=lineq
 dfbasis_cor=none
 dfbasis_scf=none
 dfintran=ovirt
 dft=off
 diag=david
 domrad=10.d0
 drpaalg=fit
 dual=off
 ecp=auto
 edisp=off
 embed=off
 epert=none
 eps=0.975
 excrad=0.d0
 excrad_fin=0.000000000D+00
 freq=off
 gauss=spher
 geom=xyz
 gopt=off
 ghost=none
 gtol=7
 grdens=off
 grtol=10
 hamilton=dc
 iface=none
 intalg=auto
 itol=12
 laptol=1.d-2
 lcorthr=loose
 lccrest=off
 lmp2dens=on
 lnoepso=0.d0
 lnoepsv=1e-6
 localcc=off
 localcorrsymm=off
 locintrf=disk
 maxact=off
 maxdim=100
 maxex=0
 mem=100gb
 molden=on
 mulmet=0
 mult=1
 nacto=0
 nactv=0
 naf_cor=off
 naf_scf=off
 nafalg=albe
 naftyp=
 nchol=auto
 ndeps=1e-3
 nstate=1
 nsing=0
 ntrip=0
 occ=
 optalg=
 optmaxit=50
 optetol=1e-6
 optgtol=1e-4
 optstol=1e-3
 orblocc=off
 orbloco=off
 orblocv=off
 orblocguess=cholesky
 osveps=1e-3
 ovirt=off
 ovltol=1e-7
 ovosnorb=80.0
 ptfreq=0.0
 popul=off
 pressure=100000
 qscf=off
 qmmm=off
 redcost_exc=off
 refdet=none
 rest=0
 rgrid=log3
 rohftype=semicanonical
 scfalg=auto
 scfdamp=off
 scfdiis=on
 scfdiis_end=300
 scfdiis_start=1
 scfdiis_step=1
 scfdtol=9
 scfext=10
 scfiguess=sad
 scflshift=off
 scfmaxit=300
 scftype=rhf
 scftol=8
 scspe=1.d0
 scsps=1.2d0
 scspt=0.33333333333333
 scspv=1.d0
 spairtol=1e-4
 symm=
 talg=occ
 temp=298.15
 test=off
 tprint=off
 uncontract=off
 unit=angs
 verbosity=2
 wpairtol=0.100000000E-05

 ************************ 2018-12-17 13:39:48 *************************
 Executing integ...

 Allocation of 100.0 Gbytes of memory...
 
 
 Number of atoms:              3
 Charge:                       0
 Number of electrons:         10
 Number of core electrons:     2
 Spin multiplicity:            1
 
                 Cartesian coordinates [bohr]      Atomic mass [AMU]  Z
   1  O    -6.42905307    8.52045845    0.04733116    15.994915       8
   2  H    -4.55949722    8.52670497   -0.03341645     1.007825       1
   3  H    -6.97587444    8.65848939   -1.73697042     1.007825       1
 
 This molecule is an asymmetric top.
 This molecule is planar.
 
 Rotational constants [cm-1]: 
     25.628326498110     13.640088185520      8.902132573924
 
 Point group: C2v 
 Computational point group: C2v 
 
 Cartesian coordinates in standard orientation [bohr]
   1  O     0.00000000   -0.00000000    0.12820056
   2  H     0.00000000   -1.47972482   -1.01731798
   3  H    -0.00000000    1.47972482   -1.01731798
 
 Nuclear repulsion energy [au]:          8.888064181648
 
 
 Basis set information:
 
 Maximum angular momentum: d
 Maximum number of contracted Gaussians:    3
 Maximum number of primitive Gaussians:    10
 Spherical harmonic GTOs are used.
 
    1  O  6-31g* [ 10s 4p 1d | 3s 2p 1d ]
    2  H  6-31g [ 4s | 2s ]
    3  H  6-31g [ 4s | 2s ]
 
 Total number of basis functions:     18
 
 
 Generating initial guess for the SCF calculation...
 CPU time [min]:     0.003                   Wall time [min]:     0.042
 
 Character table for point group C2v:
 
          E  C2  Qh  Qv  
    A1    1   1   1   1
    B1    1  -1   1  -1
    B2    1  -1  -1   1
    A2    1   1  -1  -1
 
 Number of basis functions per irrep:
    A1      9
    B1      5
    B2      3
    A2      1
 
 
 Calculation of overlap integrals...
 CPU time [min]:     0.003                   Wall time [min]:     0.042
 
 Calculation of the square root of the overlap matrix...
 Minimum eigenvalue of the overlap matrix: 0.678186E-01
 CPU time [min]:     0.004                   Wall time [min]:     0.042
 
 Calculation of kinetic energy integrals...
 CPU time [min]:     0.004                   Wall time [min]:     0.042
 Calculation of nuclear attraction integrals...
 CPU time [min]:     0.004                   Wall time [min]:     0.042
 
 Calculation of prescreening integrals...
 CPU time [min]:     0.005                   Wall time [min]:     0.043
 
 Calculation of two-electron integrals...
   7% done.
  38% done.
  63% done.
 100% done.
 CPU time [min]:     0.009                   Wall time [min]:     0.043

 ************************ 2018-12-17 13:39:51 *************************
 Executing scf...

 Allocation of 100.0 Gbytes of memory...
 ======================================================================
 ITERATION STEP   1
 CPU time [min]:     0.003                   Wall time [min]:     0.003
 
 ALPHA OCC:   3   1   1   0
 BETA  OCC:   3   1   1   0
 ***HARTREE-FOCK ENERGY IN STEP   1 IS     -75.7414604346873261 [AU]
 ======================================================================
 ITERATION STEP   2
 CPU time [min]:     0.003                   Wall time [min]:     0.003
 
 ALPHA OCC:   3   1   1   0
 BETA  OCC:   3   1   1   0
 ***HARTREE-FOCK ENERGY IN STEP   2 IS     -75.9927920748809242 [AU]
 ======================================================================
 ITERATION STEP   3
 CPU time [min]:     0.003                   Wall time [min]:     0.003
 
 ALPHA OCC:   3   1   1   0
 BETA  OCC:   3   1   1   0
 ***HARTREE-FOCK ENERGY IN STEP   3 IS     -76.0032056621033973 [AU]
 ======================================================================
 ITERATION STEP   4
 CPU time [min]:     0.003                   Wall time [min]:     0.003
 
 ALPHA OCC:   3   1   1   0
 BETA  OCC:   3   1   1   0
 ***HARTREE-FOCK ENERGY IN STEP   4 IS     -76.0056832758303216 [AU]
 ======================================================================
 ITERATION STEP   5
 CPU time [min]:     0.004                   Wall time [min]:     0.004
 
 ALPHA OCC:   3   1   1   0
 BETA  OCC:   3   1   1   0
 ***HARTREE-FOCK ENERGY IN STEP   5 IS     -76.0058312446467994 [AU]
 ======================================================================
 ITERATION STEP   6
 CPU time [min]:     0.004                   Wall time [min]:     0.004
 
 ALPHA OCC:   3   1   1   0
 BETA  OCC:   3   1   1   0
 ***HARTREE-FOCK ENERGY IN STEP   6 IS     -76.0058342315382589 [AU]
 ======================================================================
 ITERATION STEP   7
 CPU time [min]:     0.004                   Wall time [min]:     0.004
 
 ALPHA OCC:   3   1   1   0
 BETA  OCC:   3   1   1   0
 ***HARTREE-FOCK ENERGY IN STEP   7 IS     -76.0058344198720022 [AU]
 ======================================================================
 ITERATION STEP   8
 CPU time [min]:     0.005                   Wall time [min]:     0.005
 
 ALPHA OCC:   3   1   1   0
 BETA  OCC:   3   1   1   0
 ***HARTREE-FOCK ENERGY IN STEP   8 IS     -76.0058344382061932 [AU]
 ======================================================================
 ITERATION STEP   9
 CPU time [min]:     0.005                   Wall time [min]:     0.005
 
 ALPHA OCC:   3   1   1   0
 BETA  OCC:   3   1   1   0
 ***HARTREE-FOCK ENERGY IN STEP   9 IS     -76.0058344384368922 [AU]
 ======================================================================
 ITERATION STEP  10
 CPU time [min]:     0.005                   Wall time [min]:     0.005
 
 ALPHA OCC:   3   1   1   0
 BETA  OCC:   3   1   1   0
 ***HARTREE-FOCK ENERGY IN STEP  10 IS     -76.0058344384435003 [AU]
 ======================================================================
 ITERATION STEP  11
 CPU time [min]:     0.006                   Wall time [min]:     0.006
 
 ALPHA OCC:   3   1   1   0
 BETA  OCC:   3   1   1   0
 ***HARTREE-FOCK ENERGY IN STEP  11 IS     -76.0058344384436140 [AU]
 ======================================================================
 ITERATION STEP  12
 CPU time [min]:     0.006                   Wall time [min]:     0.006
 
 ALPHA OCC:   3   1   1   0
 BETA  OCC:   3   1   1   0
 ***HARTREE-FOCK ENERGY IN STEP  12 IS     -76.0058344384435713 [AU]
 ======================================================================
 
 SUCCESS...
 THE SCF ITERATION HAS CONVERGED!
 
                   A1  B1  B2  A2  
 FINAL ALPHA OCC:   3   1   1   0
 FINAL BETA  OCC:   3   1   1   0
 
 ***FINAL HARTREE-FOCK ENERGY:    -76.0058344384435713 [AU]
 
 RETURNING FROM SCF ALGORITHM
 ======================================================================

 ************************ 2018-12-17 13:39:51 *************************
 Executing ovirt...

 ovirt, the routine of orbital optimization and integral transformation 
Mon Dec 17 13:39:51 CST 2018
 Allocated memory:                  102400  Mb
 RHF calculation! 
 integral transforamtion: AOs ------ MOs
 # of basis functions, # of int. blocks    18     1
100 % 
 second part
100 %
 integral transformation is completed! 
CPU and WC time           0.01           0.01     AOs -> MOs 
 inttol =   1.000000000000000E-012   12.0000000000000     
Integrals are written to fort.55
Mon Dec 17 13:39:52 CST 2018
  ovirt terminated normally 

 ************************ 2018-12-17 13:39:52 *************************
 Executing goldstone...

 Generation of CC equations in terms of H and T...
 Generation of antisymmetrized Goldstone diagrams...
 Number of diagrams in T^1 equations:    15
 Number of diagrams in T^2 equations:    38
 Number of diagrams in T^3 equations:    49
 Number of diagrams in T^4 equations:     5
 Translation of diagrams to factorized equations...
 Optimizing intermediate calculation...
 Number of floating-point operations per iteration step:   1.3506E+08
 Probable CPU time per iteration step (hours):      0.00
 Required memory (Mbytes):       4.1
 Number of intermediates:                                  80
 Number of intermediates to be stored:                     31
 Length of intermediate file (Mbytes):       0.8

 ************************ 2018-12-17 13:39:52 *************************
 Executing xmrcc...

 **********************************************************************
 CC(3)(4) calculation 
 
 
 Allocation of 100.0 Mbytes of memory...
 Number of spinorbitals:                    34
 Number of alpha electrons:                        4
 Number of beta electrons:                         4
 Spin multiplicity:                     1
 z-component of spin:  0.0
 Spatial symmetry:                      1
 Convergence criterion:  1.0E-06
 Construction of occupation graphs...
 Number of                     0 -fold excitations:                      1
 Number of                     1 -fold excitations:                     36
 Number of                     2 -fold excitations:                    974
 Number of                     3 -fold excitations:                  12740
 Total number of configurations:                  13751
 Calculation of coupling coefficients...
xmrcc: symbol lookup error: xmrcc: undefined symbol: __powi8i8
 
 Fatal error in xmrcc.
 Program will stop.
 
 ************************ 2018-12-17 13:39:52 *************************
                   Error at the termination of mrcc.
 **********************************************************************
