
 Primary working directories    : /scratch/kmoore
 Secondary working directories  : /scratch/kmoore
 Wavefunction directory         : /scratch/kmoore/
 Main file repository           : /scratch/kmoore/

 SHA1      : f86d681fdec979508940bfbbc93fd7db66630888
 NAME      : 2015.1.24
 ARCHNAME  : linux/x86_64
 FC        : /blues/gpfs/home/software/spack-0.10.1/opt/spack/linux-centos7-x86_64/intel-17.0.4/intel-mpi-2017.3-dfphq6kavje2olnichisvjjndtridrok/compilers_and_libraries_2017.4.196/linux/mpi/intel64/bin/mpiifort
 BLASLIB   : -L/blues/gpfs/home/software/spack-0.10.1/opt/spack/linux-centos7-x86_64/intel-17.0.4/intel-mkl-2017.3.196-jyjmyutcol3veyt4bazftyqkxxzmfd7o/pkg/compilers_and_libraries_2017.4.196/linux/mkl/lib/intel64 -lmkl_intel_ilp64 -lmkl_intel_thread -lmkl_core
 id        : anlgov

 Nodes     nprocs
 bdwd-0030    3
 Number of processes for MPI-2 version of Molpro:   nprocs(total)=    4   nprocs(compute)=    3   nprocs(helper)=    1

 Using customized tuning parameters: mindgm=7; mindgv=16; mindgc=1; mindgr=1; noblas=0; minvec=7
 default implementation of scratch files=sf  

 memory,500,m
 GTHRESH,energy=1d-8
 
 nosym
 angstrom
 Geometry = {
 C       -6.4864920998      4.4742869342     -1.4165189641
 C       -4.9673302969      4.4742853003     -1.4165175458
 H       -6.8630623797      5.1707101869     -2.1950718298
 H       -6.8630644324      4.8003221720     -0.4241231814
 H       -6.8630647597      3.4518296610     -1.6303629358
 H       -4.5907576418      5.4967425677     -1.2026735393
 H       -4.5907579628      4.1482500979     -2.4089133397
 H       -4.5907600135      3.7778620227     -0.6379647038
 }
 
 basis=cc-pVTZ
 {rhf}
 {ccsd(t)}
 {optg}
 {freq}
 
 

 Variables initialized (889), CPU time= 0.00 sec
 Commands  initialized (702), CPU time= 0.01 sec, 572 directives.
 Default parameters read. Elapsed time= 1.52 sec

 Checking input...
 Passed
1


                                         ***  PROGRAM SYSTEM MOLPRO  ***
                                       Copyright, TTI GmbH Stuttgart, 2015
                                    Version 2015.1 linked Sep 21 2017 09:51:13


 **********************************************************************************************************************************
 LABEL *                                                                                 
  64 bit mpp version                                                                     DATE: 13-Dec-18          TIME: 13:23:03  
 **********************************************************************************************************************************

 SHA1:             f86d681fdec979508940bfbbc93fd7db66630888
 **********************************************************************************************************************************

 THRESHOLDS:

 ZERO    =  1.00D-12  ONEINT  =  1.00D-12  TWOINT  =  1.00D-11  PREFAC  =  1.00D-14  LOCALI  =  1.00D-09  EORDER  =  1.00D-04
 ENERGY  =  1.00D-08  ETEST   =  0.00D+00  EDENS   =  0.00D+00  THRDEDEF=  1.00D-06  GRADIENT=  1.00D-02  STEP    =  1.00D-03
 ORBITAL =  1.00D-05  CIVEC   =  1.00D-05  COEFF   =  1.00D-04  PRINTCI =  5.00D-02  PUNCHCI =  9.90D+01  OPTGRAD =  3.00D-04
 OPTENERG=  1.00D-06  OPTSTEP =  3.00D-04  THRGRAD =  1.00D-10  COMPRESS=  1.00D-11  VARMIN  =  1.00D-07  VARMAX  =  1.00D-03
 THRDOUB =  0.00D+00  THRDIV  =  1.00D-05  THRRED  =  1.00D-07  THRPSP  =  1.00D+00  THRDC   =  1.00D-10  THRCS   =  1.00D-10
 THRNRM  =  1.00D-08  THREQ   =  0.00D+00  THRDE   =  1.00D+00  THRREF  =  1.00D-05  SPARFAC =  1.00D+00  THRDLP  =  1.00D-07
 THRDIA  =  1.00D-10  THRDLS  =  1.00D-07  THRGPS  =  0.00D+00  THRKEX  =  0.00D+00  THRDIS  =  2.00D-01  THRVAR  =  1.00D-10
 THRLOC  =  1.00D-06  THRGAP  =  1.00D-06  THRLOCT = -1.00D+00  THRGAPT = -1.00D+00  THRORB  =  1.00D-06  THRMLTP =  0.00D+00
 THRCPQCI=  1.00D-10  KEXTA   =  0.00D+00  THRCOARS=  0.00D+00  SYMTOL  =  1.00D-06  GRADTOL =  1.00D-06  THROVL  =  1.00D-08
 THRORTH =  1.00D-08  GRID    =  1.00D-06  GRIDMAX =  1.00D-03  DTMAX   =  0.00D+00  THROCCDE=  1.00D-01  THROCCDE=  1.00D-01



 Variable memory set to  500000000 words,  buffer space   230000 words

 ZSYMEL=NOSYM
 ZUNIT=ANG
 

Geometry recognized as XYZ

 SETTING BASIS          =    CC-PVTZ


 Recomputing integrals since basis changed


 Using spherical harmonics

 Library entry C      S cc-pVTZ              selected for orbital group  1
 Library entry C      P cc-pVTZ              selected for orbital group  1
 Library entry C      D cc-pVTZ              selected for orbital group  1
 Library entry C      F cc-pVTZ              selected for orbital group  1
 Library entry H      S cc-pVTZ              selected for orbital group  2
 Library entry H      P cc-pVTZ              selected for orbital group  2
 Library entry H      D cc-pVTZ              selected for orbital group  2


 PROGRAM * SEWARD (Integral evaluation for generally contracted gaussian basis sets)     Author: Roland Lindh, 1990

 Geometry written to block  1 of record 700


 Point group  C1  



 ATOMIC COORDINATES

 NR  ATOM    CHARGE       X              Y              Z

   1  C       6.00  -12.257693578    8.455176908   -2.676832892
   2  C       6.00   -9.386893831    8.455173821   -2.676830212
   3  H       1.00  -12.969308273    9.771226123   -4.148084582
   4  H       1.00  -12.969312152    9.071294215   -0.801476656
   5  H       1.00  -12.969312771    6.523012688   -3.080939432
   6  H       1.00   -8.675274647   10.387338030   -2.272723607
   7  H       1.00   -8.675275254    7.839056581   -4.552186470
   8  H       1.00   -8.675279129    7.139124559   -1.205578567

 Bond lengths in Bohr (Angstrom)

 1-2  2.870799746  1-3  2.098323746  1-4  2.098323746  1-5  2.098323747  2-6  2.098323746
     ( 1.519161803)     ( 1.110385108)     ( 1.110385108)     ( 1.110385108)     ( 1.110385108)

 2-7  2.098323747  2-8  2.098323747
     ( 1.110385108)     ( 1.110385108)

 Bond angles

  1-2-6  109.82425376   1-2-7  109.82425393   1-2-8  109.82425399   2-1-3  109.82425380

  2-1-4  109.82425385   2-1-5  109.82425402   3-1-4  109.11589189   3-1-5  109.11589189

  4-1-5  109.11589189   6-2-7  109.11589189   6-2-8  109.11589189   7-2-8  109.11589188

 NUCLEAR CHARGE:                   18
 NUMBER OF PRIMITIVE AOS:         196
 NUMBER OF SYMMETRY AOS:          180
 NUMBER OF CONTRACTIONS:          144   ( 144A   )
 NUMBER OF CORE ORBITALS:           2   (   2A   )
 NUMBER OF VALENCE ORBITALS:       14   (  14A   )


 NUCLEAR REPULSION ENERGY   42.03675744


 Eigenvalues of metric

         1 0.124E-02 0.135E-02 0.167E-02 0.179E-02 0.179E-02 0.181E-02 0.181E-02 0.338E-02


 Contracted 2-electron integrals neglected if value below      1.0D-12
 AO integral compression algorithm  1   Integral accuracy      1.0D-12

     284.951 MB (compressed) written to integral file ( 58.3%)

     Node minimum: 88.080 MB, node maximum: 100.139 MB


 NUMBER OF SORTED TWO-ELECTRON INTEGRALS:   18170820.     BUFFER LENGTH:  32768
 NUMBER OF SEGMENTS:   2  SEGMENT LENGTH:   15995235      RECORD LENGTH: 524288

 Memory used in sort:      16.55 MW

 SORT1 READ    61135278. AND WROTE    17916081. INTEGRALS IN     53 RECORDS. CPU TIME:     0.80 SEC, REAL TIME:     0.96 SEC
 SORT2 READ    53722152. AND WROTE    54502020. INTEGRALS IN   1107 RECORDS. CPU TIME:     0.40 SEC, REAL TIME:     0.56 SEC

 Node minimum:    18163860.  Node maximum:    18170820. integrals

 OPERATOR DM      FOR CENTER  0  COORDINATES:    0.000000    0.000000    0.000000


 **********************************************************************************************************************************
 DATASETS  * FILE   NREC   LENGTH (MB)   RECORD NAMES
              1      18       19.97       500      610      700      900      950      970     1000      129      960     1100   
                                          VAR    BASINP    GEOM    SYMINP    ZMAT    AOBASIS   BASIS     P2S    ABASIS      S 
                                         1400     1410     1200     1210     1080     1600     1650     1700   
                                           T        V       H0       H01     AOSYM     SMH    MOLCAS    OPER   

 PROGRAMS   *        TOTAL       INT
 CPU TIMES  *         2.50      2.35
 REAL TIME  *         9.24 SEC
 DISK USED  *       933.36 MB      
 GA USED    *         0.00 MB       (max)       0.00 MB       (current)
 **********************************************************************************************************************************


 PROGRAM * RHF-SCF (CLOSED SHELL)       Authors: W. Meyer, H.-J. Werner


 NUMBER OF ELECTRONS:       9+    9-    SPACE SYMMETRY=1    SPIN SYMMETRY: Singlet 
 CONVERGENCE THRESHOLDS:    1.00E-06 (Density)    1.00E-09 (Energy)
 MAX. NUMBER OF ITERATIONS:       60
 INTERPOLATION TYPE:            DIIS
 INTERPOLATION STEPS:              2 (START)      1 (STEP)
 LEVEL SHIFTS:                  0.00 (CLOSED)  0.00 (OPEN) 



 Orbital guess generated from atomic densities. Full valence occupancy:   16

 Molecular orbital dump at record        2100.2

 Initial occupancy:   9

 ITERATION    DDIFF          GRAD             ENERGY        2-EL.EN.            DIPOLE MOMENTS         DIIS   ORB.
    1      0.000D+00      0.000D+00       -79.22619976    136.257513    0.00000    0.00000   -0.00000    0    start
    2      0.000D+00      0.397D-02       -79.25250289    134.103591    0.00000    0.00000   -0.00000    1    diag
    3      0.533D-02      0.160D-02       -79.25608767    135.008129    0.00000    0.00000   -0.00000    2    diag
    4      0.161D-02      0.479D-03       -79.25665438    134.822609    0.00000    0.00000   -0.00000    3    diag
    5      0.612D-03      0.595D-04       -79.25666583    134.823954    0.00000    0.00000   -0.00000    4    diag
    6      0.146D-03      0.664D-05       -79.25666598    134.823797    0.00000    0.00000   -0.00000    5    diag
    7      0.222D-04      0.689D-06       -79.25666598    134.823690    0.00000    0.00000   -0.00000    6    diag
    8      0.152D-05      0.114D-06       -79.25666598    134.823677    0.00000    0.00000   -0.00000    7    diag
    9      0.201D-06      0.157D-07       -79.25666598    134.823679    0.00000    0.00000   -0.00000    0    orth

 Final occupancy:   9

 !RHF STATE 1.1 Energy                -79.256665982560
 Nuclear energy                        42.03675744
 One-electron energy                 -188.70526299
 Two-electron energy                   67.41183957
 Virial quotient                       -1.00299087
 !RHF STATE 1.1 Dipole moment           0.00000000     0.00000000    -0.00000000
 Dipole moment /Debye                   0.00000000     0.00000000    -0.00000000

 Orbital energies:

         1.1          2.1          3.1          4.1          5.1          6.1          7.1          8.1          9.1         10.1
    -11.218029   -11.217403    -1.016742    -0.828441    -0.596327    -0.596327    -0.503146    -0.482188    -0.482188     0.139823

        11.1
      0.183630

 HOMO      9.1    -0.482188 =     -13.1210eV
 LUMO     10.1     0.139823 =       3.8048eV
 LUMO-HOMO         0.622012 =      16.9258eV


 **********************************************************************************************************************************
 DATASETS  * FILE   NREC   LENGTH (MB)   RECORD NAMES
              1      18       19.97       500      610      700      900      950      970     1000      129      960     1100   
                                          VAR    BASINP    GEOM    SYMINP    ZMAT    AOBASIS   BASIS     P2S    ABASIS      S 
                                         1400     1410     1200     1210     1080     1600     1650     1700   
                                           T        V       H0       H01     AOSYM     SMH    MOLCAS    OPER   

              2       4        3.30       700     1000      520     2100   
                                         GEOM     BASIS   MCVARS     RHF  

 PROGRAMS   *        TOTAL       RHF       INT
 CPU TIMES  *         4.77      2.28      2.35
 REAL TIME  *        12.92 SEC
 DISK USED  *         1.01 GB      
 SF USED    *         0.08 MB      
 GA USED    *         0.00 MB       (max)       0.00 MB       (current)
 **********************************************************************************************************************************


 PROGRAM * CCSD (Closed-shell coupled cluster)     Authors: C. Hampel, H.-J. Werner, 1991, M. Deegan, P.J. Knowles, 1992


 Convergence thresholds:  THRVAR = 1.00D-12  THRDEN = 1.00D-08

 CCSD(T)     terms to be evaluated (factor= 1.000)


 Number of core orbitals:           2 (   2 )
 Number of closed-shell orbitals:   7 (   7 )
 Number of external orbitals:     135 ( 135 )

 Molecular orbitals read from record     2100.2  Type=RHF/CANONICAL (state 1.1)

 Number of N-1 electron functions:               7
 Number of N-2 electron functions:              28
 Number of singly external CSFs:               945
 Number of doubly external CSFs:            446985
 Total number of CSFs:                      447931

 Length of J-op  integral file:               0.00 MB
 Length of K-op  integral file:               1.43 MB
 Length of 3-ext integral record:             0.00 MB

 Memory could be reduced to 25.00 Mwords without degradation in triples

 Integral transformation finished. Total CPU:   1.50 sec, npass=  1  Memory used:  13.46 MW

 Reference energy:                    -79.25666598

 MP2 singlet pair energy:              -0.25946659
 MP2 triplet pair energy:              -0.11134464
 MP2 correlation energy:               -0.37081123
 MP2 total energy:                    -79.62747721

 SCS-MP2 correlation energy:           -0.38064102   (PS=  1.200000  PT=  0.333333)
 SCS-MP2 total energy:                -79.63730700

 ITER.      SQ.NORM     CORR.ENERGY   TOTAL ENERGY   ENERGY CHANGE        DEN1      VAR(S)    VAR(P)  DIIS     TIME  TIME/IT
   1      1.13195203    -0.40005561   -79.65672160    -0.02924439    -0.01929457  0.95D-03  0.19D-02  1  1     2.15     0.70
   2      1.14193369    -0.40204973   -79.65871571    -0.00199411    -0.01007744  0.23D-04  0.17D-03  2  2     2.92     0.76
   3      1.14455563    -0.40214569   -79.65881167    -0.00009597    -0.00166686  0.26D-05  0.11D-04  3  3     3.66     0.79
   4      1.14518842    -0.40216666   -79.65883264    -0.00002097    -0.00027973  0.20D-06  0.55D-06  4  4     4.36     0.78
   5      1.14527375    -0.40216745   -79.65883343    -0.00000079    -0.00003242  0.22D-07  0.41D-07  5  5     5.13     0.80
   6      1.14528255    -0.40216614   -79.65883212     0.00000131    -0.00000373  0.25D-08  0.30D-08  6  6     5.89     0.81
   7      1.14528247    -0.40216602   -79.65883201     0.00000011     0.00000008  0.23D-09  0.25D-09  6  2     6.62     0.81
   8      1.14528281    -0.40216605   -79.65883203    -0.00000002    -0.00000020  0.29D-10  0.15D-10  6  1     7.33     0.81
   9      1.14528284    -0.40216603   -79.65883201     0.00000001    -0.00000003  0.34D-11  0.19D-11  6  3     8.07     0.81
  10      1.14528279    -0.40216603   -79.65883202    -0.00000000     0.00000006  0.40D-12  0.17D-12  6  4     8.87     0.82
  11      1.14528277    -0.40216603   -79.65883202    -0.00000000     0.00000002  0.26D-13  0.19D-13  6  5     9.62     0.82

 Norm of t1 vector:      0.04084416      S-energy:     0.00000000      T1 diagnostic:  0.00771882
                                                                       D1 diagnostic:  0.01306727


 Total CPU time for triples:      9.37 sec


 RESULTS
 =======

  Reference energy                    -79.256665982560
  CCSD singlet pair energy             -0.296559094729
  CCSD triplet pair energy             -0.105606943574
  CCSD correlation energy              -0.402166034730

  Triples (T) contribution             -0.013677403390
  Total correlation energy             -0.415843438120

  CCSD total energy                   -79.658832017289
  CCSD[T] energy                      -79.672865320044
  CCSD-T energy                       -79.672357895593
 !CCSD(T) total energy                -79.672509420680

 Timing summary (sec):

 STEP                 CPU(USER)    SYS     CPU(TOT)    WALL
 Transformation          1.51      0.22      1.73      1.76
 CCSD iterations         8.11      0.81      8.92      8.99
 Triples                 9.37      0.19      9.56      9.55

 Program statistics:

 Available memory in ccsd:               499999704
 Min. memory needed in ccsd:               1437889
 Max. memory used in ccsd:                 1802974
 Max. memory used in cckext:               1340122 (11 integral passes)



 **********************************************************************************************************************************
 DATASETS  * FILE   NREC   LENGTH (MB)   RECORD NAMES
              1      19       96.72       500      610      700      900      950      970     1000      129      960     1100   
                                          VAR    BASINP    GEOM    SYMINP    ZMAT    AOBASIS   BASIS     P2S    ABASIS      S 
                                         1400     1410     1200     1210     1080     1600     1650     1700     1380   
                                           T        V       H0       H01     AOSYM     SMH    MOLCAS    OPER     JKOP   

              2       4        3.30       700     1000      520     2100   
                                         GEOM     BASIS   MCVARS     RHF  

 PROGRAMS   *        TOTAL   CCSD(T)       RHF       INT
 CPU TIMES  *        23.79     19.02      2.28      2.35
 REAL TIME  *        33.29 SEC
 DISK USED  *         1.13 GB      
 SF USED    *       117.92 MB      
 GA USED    *         0.00 MB       (max)       0.00 MB       (current)
 **********************************************************************************************************************************


 PROGRAM * OPT (Geometry optimization)     Authors: F. Eckert and H.-J. Werner


 BFGS update of hessian

 Running default procedure: RHF-SCF000  CCSD(T)

 Geometry optimization using default procedure for command CCSD(T)

 Geometry written to block  1 of record 700
 

 Generated   6 symmetrical displacements

 Number of displacements for numerical gradient:     12

 Starting numerical gradient for CCSD(T)
 Starting task   1   Incrementing displacement  1 by  1.   CPU=    0.00 sec, Elapsed=    0.00 sec


 Recomputing integrals since geometry changed


 PROGRAM * SEWARD (Integral evaluation for generally contracted gaussian basis sets)     Author: Roland Lindh, 1990

 Geometry written to block  1 of record 700


 Point group  C1  



 ATOMIC COORDINATES

 NR  ATOM    CHARGE       X              Y              Z

   1  C       6.00  -12.257693576    8.457597222   -2.675419180
   2  C       6.00   -9.386893830    8.457594134   -2.675416500
   3  H       1.00  -12.970177531    9.769269512   -4.150100507
   4  H       1.00  -12.972569863    9.069724630   -0.800179762
   5  H       1.00  -12.965185805    6.524118570   -3.081634114
   6  H       1.00   -8.671147681   10.388443913   -2.273418289
   7  H       1.00   -8.678532964    7.837486997   -4.550889576
   8  H       1.00   -8.676148387    7.137167948   -1.207594492

 Bond lengths in Bohr (Angstrom)

 1-2  2.870799746  1-3  2.098285633  1-4  2.098158942  1-5  2.098546049  2-6  2.098112480
     ( 1.519161803)     ( 1.110364939)     ( 1.110297897)     ( 1.110502745)     ( 1.110273310)

 2-7  2.098501188  2-8  2.098376955
     ( 1.110479006)     ( 1.110413264)

 Bond angles

  1-2-6  109.94618029   1-2-7  109.72798749   1-2-8  109.79850220   2-1-3  109.84986225

  2-1-4  109.92046988   2-1-5  109.70233757   3-1-4  109.27284230   3-1-5  108.99154668

  4-1-5  109.08276676   6-2-7  109.14902043   6-2-8  109.23984457   7-2-8  108.95829106

 NUCLEAR CHARGE:                   18
 NUMBER OF PRIMITIVE AOS:         196
 NUMBER OF SYMMETRY AOS:          180
 NUMBER OF CONTRACTIONS:          144   ( 144A   )
 NUMBER OF CORE ORBITALS:           2   (   2A   )
 NUMBER OF VALENCE ORBITALS:       14   (  14A   )


 NUCLEAR REPULSION ENERGY   42.03670103

 Eigenvalues of metric

         1 0.124E-02 0.135E-02 0.167E-02 0.179E-02 0.179E-02 0.182E-02 0.182E-02 0.338E-02


 Contracted 2-electron integrals neglected if value below      1.0D-12
 AO integral compression algorithm  1   Integral accuracy      1.0D-12

     285.999 MB (compressed) written to integral file ( 58.5%)

     Node minimum: 92.275 MB, node maximum: 98.566 MB


 NUMBER OF SORTED TWO-ELECTRON INTEGRALS:   18170820.     BUFFER LENGTH:  32768
 NUMBER OF SEGMENTS:   2  SEGMENT LENGTH:   15995235      RECORD LENGTH: 524288

 Memory used in sort:      16.55 MW

 SORT1 READ    61135278. AND WROTE    17925181. INTEGRALS IN     53 RECORDS. CPU TIME:     0.83 SEC, REAL TIME:     1.01 SEC
 SORT2 READ    53751942. AND WROTE    54502020. INTEGRALS IN   1056 RECORDS. CPU TIME:     0.32 SEC, REAL TIME:     0.47 SEC

 Node minimum:    18163860.  Node maximum:    18170820. integrals

 OPERATOR DM      FOR CENTER  0  COORDINATES:    0.000000    0.000000    0.000000

 PROGRAM * RHF-SCF (CLOSED SHELL)       Authors: W. Meyer, H.-J. Werner


 NUMBER OF ELECTRONS:       9+    9-    SPACE SYMMETRY=1    SPIN SYMMETRY: Singlet 
 CONVERGENCE THRESHOLDS:    1.00E-07 (Density)    1.00E-09 (Energy)
 MAX. NUMBER OF ITERATIONS:       60
 INTERPOLATION TYPE:            DIIS
 INTERPOLATION STEPS:              2 (START)      1 (STEP)
 LEVEL SHIFTS:                  0.00 (CLOSED)  0.00 (OPEN) 

 Number of closed-shell orbitals:    9 (   9 )


 Molecular orbitals read from record     2100.2  Type=RHF/CANONICAL (state 1.1)

 Molecular orbital dump at record        2100.1

 ITERATION    DDIFF          GRAD             ENERGY        2-EL.EN.            DIPOLE MOMENTS         DIIS   ORB.
    1      0.000D+00      0.000D+00       -79.25665996    134.823614   -0.00000   -0.00121   -0.00071    0    start
    2      0.000D+00      0.398D-04       -79.25666212    134.823552    0.00000   -0.00096   -0.00056    1    diag
    3      0.501D-04      0.931D-05       -79.25666235    134.823583    0.00000   -0.00070   -0.00041    2    diag
    4      0.123D-04      0.203D-05       -79.25666236    134.823555    0.00000   -0.00060   -0.00035    3    diag
    5      0.310D-05      0.257D-06       -79.25666236    134.823582    0.00000   -0.00059   -0.00035    4    diag
    6      0.497D-06      0.354D-07       -79.25666236    134.823563    0.00000   -0.00059   -0.00035    5    diag
    7      0.643D-07      0.131D-07       -79.25666236    134.823572    0.00000   -0.00059   -0.00035    0    orth

 Final occupancy:   9

 !RHF STATE 1.1 Energy                -79.256662362133
 Nuclear energy                        42.03670103
 One-electron energy                 -188.70514948
 Two-electron energy                   67.41178609
 Virial quotient                       -1.00299115
 !RHF STATE 1.1 Dipole moment           0.00000000    -0.00059409    -0.00034701
 Dipole moment /Debye                   0.00000001    -0.00150993    -0.00088195

 Orbital energies:

         1.1          2.1          3.1          4.1          5.1          6.1          7.1          8.1          9.1         10.1
    -11.218031   -11.217405    -1.016742    -0.828439    -0.596328    -0.596326    -0.503146    -0.482186    -0.482185     0.139823

        11.1
      0.183629

 HOMO      9.1    -0.482185 =     -13.1209eV
 LUMO     10.1     0.139823 =       3.8048eV
 LUMO-HOMO         0.622008 =      16.9257eV


 **********************************************************************************************************************************
 DATASETS  * FILE   NREC   LENGTH (MB)   RECORD NAMES
              1      19       23.30       500      610      700      900      950      970     1000      129      960     1100   
                                          VAR    BASINP    GEOM    SYMINP    ZMAT    AOBASIS   BASIS     P2S    ABASIS      S 
                                         1400     1410     1200     1210     1080     1600     1650     1700     2100   
                                           T        V       H0       H01     AOSYM     SMH    MOLCAS    OPER      RHF  

              2       5        3.72       700     1000      520     2100     5600   
                                         GEOM     BASIS   MCVARS     RHF     GINFO   

 PROGRAMS   *        TOTAL       RHF   CCSD(T)       RHF       INT
 CPU TIMES  *        28.33      4.15     19.02      2.28      2.35
 REAL TIME  *        40.94 SEC
 DISK USED  *         1.29 GB      
 SF USED    *       117.92 MB      
 GA USED    *         0.00 MB       (max)       0.00 MB       (current)
 **********************************************************************************************************************************


 PROGRAM * CCSD (Closed-shell coupled cluster)     Authors: C. Hampel, H.-J. Werner, 1991, M. Deegan, P.J. Knowles, 1992


 Convergence thresholds:  THRVAR = 1.00D-12  THRDEN = 1.00D-08

 CCSD(T)     terms to be evaluated (factor= 1.000)


 Number of core orbitals:           2 (   2 )
 Number of closed-shell orbitals:   7 (   7 )
 Number of external orbitals:     135 ( 135 )

 Molecular orbitals read from record     2100.1  Type=RHF/CANONICAL (state 1.1)

 Number of N-1 electron functions:               7
 Number of N-2 electron functions:              28
 Number of singly external CSFs:               945
 Number of doubly external CSFs:            446985
 Total number of CSFs:                      447931

 Length of J-op  integral file:               0.00 MB
 Length of K-op  integral file:               1.43 MB
 Length of 3-ext integral record:             0.00 MB

 Memory could be reduced to 25.00 Mwords without degradation in triples

 Integral transformation finished. Total CPU:   1.39 sec, npass=  1  Memory used:  13.46 MW

 Reference energy:                    -79.25666236

 MP2 singlet pair energy:              -0.25946690
 MP2 triplet pair energy:              -0.11134483
 MP2 correlation energy:               -0.37081173
 MP2 total energy:                    -79.62747410

 SCS-MP2 correlation energy:           -0.38064151   (PS=  1.200000  PT=  0.333333)
 SCS-MP2 total energy:                -79.63730387

 ITER.      SQ.NORM     CORR.ENERGY   TOTAL ENERGY   ENERGY CHANGE        DEN1      VAR(S)    VAR(P)  DIIS     TIME  TIME/IT
   1      1.13195264    -0.40005611   -79.65671847    -0.02924438    -0.01929450  0.95D-03  0.19D-02  1  1     2.14     0.78
   2      1.14193440    -0.40205024   -79.65871261    -0.00199413    -0.01007749  0.23D-04  0.17D-03  2  2     2.89     0.81
   3      1.14455640    -0.40214621   -79.65880858    -0.00009597    -0.00166688  0.26D-05  0.11D-04  3  3     3.63     0.81
   4      1.14518920    -0.40216718   -79.65882955    -0.00002097    -0.00027974  0.20D-06  0.55D-06  4  4     4.41     0.83
   5      1.14527453    -0.40216797   -79.65883034    -0.00000079    -0.00003242  0.22D-07  0.41D-07  5  5     5.12     0.82
   6      1.14528333    -0.40216666   -79.65882902     0.00000131    -0.00000373  0.25D-08  0.30D-08  6  6     5.86     0.82
   7      1.14528325    -0.40216655   -79.65882891     0.00000011     0.00000008  0.23D-09  0.25D-09  6  2     6.62     0.83
   8      1.14528359    -0.40216657   -79.65882893    -0.00000002    -0.00000020  0.29D-10  0.15D-10  6  1     7.41     0.84
   9      1.14528362    -0.40216655   -79.65882892     0.00000001    -0.00000003  0.34D-11  0.19D-11  6  3     8.13     0.83
  10      1.14528358    -0.40216656   -79.65882892    -0.00000000     0.00000006  0.40D-12  0.17D-12  6  4     8.90     0.84
  11      1.14528355    -0.40216656   -79.65882892    -0.00000000     0.00000002  0.26D-13  0.19D-13  6  5     9.67     0.84

 Norm of t1 vector:      0.04084434      S-energy:     0.00000001      T1 diagnostic:  0.00771886
                                                                       D1 diagnostic:  0.01306767

 Total CPU time for triples:      9.43 sec


 RESULTS
 =======

  Reference energy                    -79.256662362132
  CCSD singlet pair energy             -0.296559523284
  CCSD triplet pair energy             -0.105607040469
  CCSD correlation energy              -0.402166557572

  Triples (T) contribution             -0.013677485084
  Total correlation energy             -0.415844042656

  CCSD total energy                   -79.658828919705
  CCSD[T] energy                      -79.672862308091
  CCSD-T energy                       -79.672354877856
 !CCSD(T) total energy                -79.672506404789

 Timing summary (sec):

 STEP                 CPU(USER)    SYS     CPU(TOT)    WALL
 Transformation          1.40      0.22      1.62      1.61
 CCSD iterations         8.27      0.85      9.12      9.25
 Triples                 9.43      0.20      9.63      9.62

 Program statistics:

 Available memory in ccsd:               499998072
 Min. memory needed in ccsd:               1437889
 Max. memory used in ccsd:                 1802974
 Max. memory used in cckext:               1340122 (11 integral passes)



 **********************************************************************************************************************************
 DATASETS  * FILE   NREC   LENGTH (MB)   RECORD NAMES
              1      20      100.05       500      610      700      900      950      970     1000      129      960     1100   
                                          VAR    BASINP    GEOM    SYMINP    ZMAT    AOBASIS   BASIS     P2S    ABASIS      S 
                                         1400     1410     1200     1210     1080     1600     1650     1700     2100     1380   
                                           T        V       H0       H01     AOSYM     SMH    MOLCAS    OPER      RHF     JKOP   

              2       5        3.72       700     1000      520     2100     5600   
                                         GEOM     BASIS   MCVARS     RHF     GINFO   

 PROGRAMS   *        TOTAL   CCSD(T)   CCSD(T)       RHF       INT
 CPU TIMES  *        47.47     19.12     19.02      2.28      2.35
 REAL TIME  *        61.48 SEC
 DISK USED  *         1.29 GB      
 SF USED    *       117.92 MB      
 GA USED    *         0.00 MB       (max)       0.00 MB       (current)
 **********************************************************************************************************************************
 Starting task   2   Incrementing displacement  1 by -1.   CPU=   25.21 sec, Elapsed=   26.42 sec


 Recomputing integrals since geometry changed


 PROGRAM * SEWARD (Integral evaluation for generally contracted gaussian basis sets)     Author: Roland Lindh, 1990

 Geometry written to block  1 of record 700


 Point group  C1  



 ATOMIC COORDINATES

 NR  ATOM    CHARGE       X              Y              Z

   1  C       6.00  -12.257693579    8.452756595   -2.678246605
   2  C       6.00   -9.386893833    8.452753508   -2.678243925
   3  H       1.00  -12.968439016    9.773182734   -4.146068657
   4  H       1.00  -12.966054442    9.072863800   -0.802773550
   5  H       1.00  -12.973439737    6.521906805   -3.080244750
   6  H       1.00   -8.679401614   10.386232148   -2.272028924
   7  H       1.00   -8.672017544    7.840626165   -4.553483364
   8  H       1.00   -8.674409871    7.141081171   -1.203562643

 Bond lengths in Bohr (Angstrom)

 1-2  2.870799746  1-3  2.098376955  1-4  2.098501188  1-5  2.098112481  2-6  2.098546049
     ( 1.519161803)     ( 1.110413264)     ( 1.110479006)     ( 1.110273311)     ( 1.110502745)

 2-7  2.098158942  2-8  2.098285633
     ( 1.110297897)     ( 1.110364939)

 Bond angles

  1-2-6  109.70233731   1-2-7  109.92046996   1-2-8  109.84986245   2-1-3  109.79850203

  2-1-4  109.72798740   2-1-5  109.94618055   3-1-4  108.95829104   3-1-5  109.23984455

  4-1-5  109.14902047   6-2-7  109.08276681   6-2-8  108.99154665   7-2-8  109.27284225

 NUCLEAR CHARGE:                   18
 NUMBER OF PRIMITIVE AOS:         196
 NUMBER OF SYMMETRY AOS:          180
 NUMBER OF CONTRACTIONS:          144   ( 144A   )
 NUMBER OF CORE ORBITALS:           2   (   2A   )
 NUMBER OF VALENCE ORBITALS:       14   (  14A   )


 NUCLEAR REPULSION ENERGY   42.03670103

 Eigenvalues of metric

         1 0.124E-02 0.135E-02 0.167E-02 0.179E-02 0.179E-02 0.182E-02 0.182E-02 0.338E-02


 Contracted 2-electron integrals neglected if value below      1.0D-12
 AO integral compression algorithm  1   Integral accuracy      1.0D-12

     285.999 MB (compressed) written to integral file ( 58.5%)

     Node minimum: 92.799 MB, node maximum: 99.615 MB


 NUMBER OF SORTED TWO-ELECTRON INTEGRALS:   18170820.     BUFFER LENGTH:  32768
 NUMBER OF SEGMENTS:   2  SEGMENT LENGTH:   15995235      RECORD LENGTH: 524288

 Memory used in sort:      16.55 MW

 SORT1 READ    61135278. AND WROTE    17925175. INTEGRALS IN     53 RECORDS. CPU TIME:     0.78 SEC, REAL TIME:     0.94 SEC
 SORT2 READ    53751942. AND WROTE    54502020. INTEGRALS IN   1062 RECORDS. CPU TIME:     0.38 SEC, REAL TIME:     0.53 SEC

 Node minimum:    18163860.  Node maximum:    18170820. integrals

 OPERATOR DM      FOR CENTER  0  COORDINATES:    0.000000    0.000000    0.000000

 PROGRAM * RHF-SCF (CLOSED SHELL)       Authors: W. Meyer, H.-J. Werner


 NUMBER OF ELECTRONS:       9+    9-    SPACE SYMMETRY=1    SPIN SYMMETRY: Singlet 
 CONVERGENCE THRESHOLDS:    1.00E-07 (Density)    1.00E-09 (Energy)
 MAX. NUMBER OF ITERATIONS:       60
 INTERPOLATION TYPE:            DIIS
 INTERPOLATION STEPS:              2 (START)      1 (STEP)
 LEVEL SHIFTS:                  0.00 (CLOSED)  0.00 (OPEN) 

 Number of closed-shell orbitals:    9 (   9 )


 Molecular orbitals read from record     2100.2  Type=RHF/CANONICAL (state 1.1)

 Molecular orbital dump at record        2100.1

 ITERATION    DDIFF          GRAD             ENERGY        2-EL.EN.            DIPOLE MOMENTS         DIIS   ORB.
    1      0.000D+00      0.000D+00       -79.25665996    134.823614    0.00000    0.00121    0.00071    0    start
    2      0.000D+00      0.398D-04       -79.25666212    134.823552   -0.00000    0.00096    0.00056    1    diag
    3      0.501D-04      0.931D-05       -79.25666235    134.823583   -0.00000    0.00070    0.00041    2    diag
    4      0.123D-04      0.203D-05       -79.25666236    134.823555   -0.00000    0.00060    0.00035    3    diag
    5      0.310D-05      0.257D-06       -79.25666236    134.823582   -0.00000    0.00059    0.00035    4    diag
    6      0.497D-06      0.354D-07       -79.25666236    134.823563   -0.00000    0.00059    0.00035    5    diag
    7      0.643D-07      0.131D-07       -79.25666236    134.823572   -0.00000    0.00059    0.00035    0    orth

 Final occupancy:   9

 !RHF STATE 1.1 Energy                -79.256662362139
 Nuclear energy                        42.03670103
 One-electron energy                 -188.70514948
 Two-electron energy                   67.41178609
 Virial quotient                       -1.00299115
 !RHF STATE 1.1 Dipole moment          -0.00000000     0.00059409     0.00034701
 Dipole moment /Debye                  -0.00000001     0.00150993     0.00088195

 Orbital energies:

         1.1          2.1          3.1          4.1          5.1          6.1          7.1          8.1          9.1         10.1
    -11.218031   -11.217405    -1.016742    -0.828439    -0.596328    -0.596326    -0.503146    -0.482186    -0.482185     0.139823

        11.1
      0.183629

 HOMO      9.1    -0.482185 =     -13.1209eV
 LUMO     10.1     0.139823 =       3.8048eV
 LUMO-HOMO         0.622008 =      16.9257eV


 **********************************************************************************************************************************
 DATASETS  * FILE   NREC   LENGTH (MB)   RECORD NAMES
              1      19       23.30       500      610      700      900      950      970     1000      129      960     1100   
                                          VAR    BASINP    GEOM    SYMINP    ZMAT    AOBASIS   BASIS     P2S    ABASIS      S 
                                         1400     1410     1200     1210     1080     1600     1650     1700     2100   
                                           T        V       H0       H01     AOSYM     SMH    MOLCAS    OPER      RHF  

              2       5        3.72       700     1000      520     2100     5600   
                                         GEOM     BASIS   MCVARS     RHF     GINFO   

 PROGRAMS   *        TOTAL       RHF   CCSD(T)       RHF       INT
 CPU TIMES  *        51.64      4.17     19.02      2.28      2.35
 REAL TIME  *        67.65 SEC
 DISK USED  *         1.30 GB      
 SF USED    *       117.92 MB      
 GA USED    *         0.00 MB       (max)       0.00 MB       (current)
 **********************************************************************************************************************************


 PROGRAM * CCSD (Closed-shell coupled cluster)     Authors: C. Hampel, H.-J. Werner, 1991, M. Deegan, P.J. Knowles, 1992


 Convergence thresholds:  THRVAR = 1.00D-12  THRDEN = 1.00D-08

 CCSD(T)     terms to be evaluated (factor= 1.000)


 Number of core orbitals:           2 (   2 )
 Number of closed-shell orbitals:   7 (   7 )
 Number of external orbitals:     135 ( 135 )

 Molecular orbitals read from record     2100.1  Type=RHF/CANONICAL (state 1.1)

 Number of N-1 electron functions:               7
 Number of N-2 electron functions:              28
 Number of singly external CSFs:               945
 Number of doubly external CSFs:            446985
 Total number of CSFs:                      447931

 Length of J-op  integral file:               0.00 MB
 Length of K-op  integral file:               1.43 MB
 Length of 3-ext integral record:             0.00 MB

 Memory could be reduced to 25.00 Mwords without degradation in triples

 Integral transformation finished. Total CPU:   1.49 sec, npass=  1  Memory used:  13.46 MW

 Reference energy:                    -79.25666236

 MP2 singlet pair energy:              -0.25946690
 MP2 triplet pair energy:              -0.11134483
 MP2 correlation energy:               -0.37081173
 MP2 total energy:                    -79.62747410

 SCS-MP2 correlation energy:           -0.38064151   (PS=  1.200000  PT=  0.333333)
 SCS-MP2 total energy:                -79.63730387

 ITER.      SQ.NORM     CORR.ENERGY   TOTAL ENERGY   ENERGY CHANGE        DEN1      VAR(S)    VAR(P)  DIIS     TIME  TIME/IT
   1      1.13195264    -0.40005611   -79.65671847    -0.02924438    -0.01929450  0.95D-03  0.19D-02  1  1     2.17     0.71
   2      1.14193440    -0.40205024   -79.65871261    -0.00199413    -0.01007749  0.23D-04  0.17D-03  2  2     2.93     0.77
   3      1.14455640    -0.40214621   -79.65880858    -0.00009597    -0.00166688  0.26D-05  0.11D-04  3  3     3.68     0.78
   4      1.14518920    -0.40216718   -79.65882955    -0.00002097    -0.00027974  0.20D-06  0.55D-06  4  4     4.42     0.79
   5      1.14527453    -0.40216797   -79.65883034    -0.00000079    -0.00003242  0.22D-07  0.41D-07  5  5     5.17     0.79
   6      1.14528333    -0.40216666   -79.65882902     0.00000131    -0.00000373  0.25D-08  0.30D-08  6  6     5.93     0.80
   7      1.14528325    -0.40216655   -79.65882891     0.00000011     0.00000008  0.23D-09  0.25D-09  6  2     6.71     0.81
   8      1.14528359    -0.40216657   -79.65882893    -0.00000002    -0.00000020  0.29D-10  0.15D-10  6  1     7.50     0.81
   9      1.14528362    -0.40216655   -79.65882892     0.00000001    -0.00000003  0.34D-11  0.19D-11  6  3     8.22     0.81
  10      1.14528358    -0.40216656   -79.65882892    -0.00000000     0.00000006  0.40D-12  0.17D-12  6  4     8.97     0.81
  11      1.14528355    -0.40216656   -79.65882892    -0.00000000     0.00000002  0.26D-13  0.19D-13  6  5     9.74     0.81

 Norm of t1 vector:      0.04084434      S-energy:     0.00000001      T1 diagnostic:  0.00771886
                                                                       D1 diagnostic:  0.01306767

 Total CPU time for triples:      8.86 sec


 RESULTS
 =======

  Reference energy                    -79.256662362139
  CCSD singlet pair energy             -0.296559523283
  CCSD triplet pair energy             -0.105607040470
  CCSD correlation energy              -0.402166557573

  Triples (T) contribution             -0.013677485084
  Total correlation energy             -0.415844042656

  CCSD total energy                   -79.658828919711
  CCSD[T] energy                      -79.672862308097
  CCSD-T energy                       -79.672354877862
 !CCSD(T) total energy                -79.672506404795

 Timing summary (sec):

 STEP                 CPU(USER)    SYS     CPU(TOT)    WALL
 Transformation          1.51      0.21      1.72      1.71
 CCSD iterations         8.23      0.75      8.98      8.94
 Triples                 8.86      0.22      9.08      9.08

 Program statistics:

 Available memory in ccsd:               499998072
 Min. memory needed in ccsd:               1437889
 Max. memory used in ccsd:                 1802974
 Max. memory used in cckext:               1340122 (11 integral passes)



 **********************************************************************************************************************************
 DATASETS  * FILE   NREC   LENGTH (MB)   RECORD NAMES
              1      20      100.05       500      610      700      900      950      970     1000      129      960     1100   
                                          VAR    BASINP    GEOM    SYMINP    ZMAT    AOBASIS   BASIS     P2S    ABASIS      S 
                                         1400     1410     1200     1210     1080     1600     1650     1700     2100     1380   
                                           T        V       H0       H01     AOSYM     SMH    MOLCAS    OPER      RHF     JKOP   

              2       5        3.72       700     1000      520     2100     5600   
                                         GEOM     BASIS   MCVARS     RHF     GINFO   

 PROGRAMS   *        TOTAL   CCSD(T)   CCSD(T)       RHF       INT
 CPU TIMES  *        70.27     18.63     19.02      2.28      2.35
 REAL TIME  *        87.44 SEC
 DISK USED  *         1.30 GB      
 SF USED    *       117.92 MB      
 GA USED    *         0.00 MB       (max)       0.00 MB       (current)
 **********************************************************************************************************************************
 Starting task   3   Incrementing displacement  2 by  1.   CPU=   49.87 sec, Elapsed=   52.38 sec


 Recomputing integrals since geometry changed


 PROGRAM * SEWARD (Integral evaluation for generally contracted gaussian basis sets)     Author: Roland Lindh, 1990

 Geometry written to block  1 of record 700


 Point group  C1  



 ATOMIC COORDINATES

 NR  ATOM    CHARGE       X              Y              Z

   1  C       6.00  -12.257768056    8.455176908   -2.676832892
   2  C       6.00   -9.386819353    8.455173821   -2.676830212
   3  H       1.00  -12.965492350    9.772193080   -4.149165574
   4  H       1.00  -12.965496232    9.071746900   -0.800098741
   5  H       1.00  -12.965496851    6.521593033   -3.081236344
   6  H       1.00   -8.679090567   10.388757685   -2.272426695
   7  H       1.00   -8.679091174    7.838603896   -4.553564384
   8  H       1.00   -8.679095052    7.138157602   -1.204497575

 Bond lengths in Bohr (Angstrom)

 1-2  2.870948703  1-3  2.098372893  1-4  2.098372893  1-5  2.098372894  2-6  2.098372893
     ( 1.519240627)     ( 1.110411115)     ( 1.110411115)     ( 1.110411115)     ( 1.110411115)

 2-7  2.098372894  2-8  2.098372893
     ( 1.110411115)     ( 1.110411115)

 Bond angles

  1-2-6  109.71089166   1-2-7  109.71089184   1-2-8  109.71089190   2-1-3  109.71089170

  2-1-4  109.71089176   2-1-5  109.71089193   3-1-4  109.23048977   3-1-5  109.23048977

  4-1-5  109.23048976   6-2-7  109.23048977   6-2-8  109.23048976   7-2-8  109.23048976

 NUCLEAR CHARGE:                   18
 NUMBER OF PRIMITIVE AOS:         196
 NUMBER OF SYMMETRY AOS:          180
 NUMBER OF CONTRACTIONS:          144   ( 144A   )
 NUMBER OF CORE ORBITALS:           2   (   2A   )
 NUMBER OF VALENCE ORBITALS:       14   (  14A   )


 NUCLEAR REPULSION ENERGY   42.04198637


 Eigenvalues of metric

         1 0.124E-02 0.135E-02 0.167E-02 0.180E-02 0.180E-02 0.182E-02 0.182E-02 0.338E-02


 Contracted 2-electron integrals neglected if value below      1.0D-12
 AO integral compression algorithm  1   Integral accuracy      1.0D-12

     284.951 MB (compressed) written to integral file ( 58.3%)

     Node minimum: 91.488 MB, node maximum: 96.993 MB


 NUMBER OF SORTED TWO-ELECTRON INTEGRALS:   18170820.     BUFFER LENGTH:  32768
 NUMBER OF SEGMENTS:   2  SEGMENT LENGTH:   15995235      RECORD LENGTH: 524288

 Memory used in sort:      16.55 MW

 SORT1 READ    61135278. AND WROTE    17916693. INTEGRALS IN     53 RECORDS. CPU TIME:     0.85 SEC, REAL TIME:     1.01 SEC
 SORT2 READ    53724120. AND WROTE    54502020. INTEGRALS IN   1047 RECORDS. CPU TIME:     0.37 SEC, REAL TIME:     0.52 SEC

 Node minimum:    18163860.  Node maximum:    18170820. integrals

 OPERATOR DM      FOR CENTER  0  COORDINATES:    0.000000    0.000000    0.000000

 PROGRAM * RHF-SCF (CLOSED SHELL)       Authors: W. Meyer, H.-J. Werner


 NUMBER OF ELECTRONS:       9+    9-    SPACE SYMMETRY=1    SPIN SYMMETRY: Singlet 
 CONVERGENCE THRESHOLDS:    1.00E-07 (Density)    1.00E-09 (Energy)
 MAX. NUMBER OF ITERATIONS:       60
 INTERPOLATION TYPE:            DIIS
 INTERPOLATION STEPS:              2 (START)      1 (STEP)
 LEVEL SHIFTS:                  0.00 (CLOSED)  0.00 (OPEN) 

 Number of closed-shell orbitals:    9 (   9 )


 Molecular orbitals read from record     2100.2  Type=RHF/CANONICAL (state 1.1)

 Molecular orbital dump at record        2100.1

 ITERATION    DDIFF          GRAD             ENERGY        2-EL.EN.            DIPOLE MOMENTS         DIIS   ORB.
    1      0.000D+00      0.000D+00       -79.25654715    134.836069    0.00000    0.00000   -0.00000    0    start
    2      0.000D+00      0.297D-04       -79.25654808    134.834146   -0.00000    0.00000   -0.00000    1    diag
    3      0.386D-04      0.515D-05       -79.25654814    134.835103   -0.00000    0.00000   -0.00000    2    diag
    4      0.711D-05      0.106D-05       -79.25654814    134.834562   -0.00000    0.00000   -0.00000    3    diag
    5      0.148D-05      0.392D-06       -79.25654814    134.834763   -0.00000    0.00000   -0.00000    4    diag
    6      0.509D-06      0.545D-07       -79.25654814    134.834754   -0.00000    0.00000   -0.00000    5    diag
    7      0.108D-06      0.884D-08       -79.25654814    134.834755   -0.00000    0.00000   -0.00000    6    diag
    8      0.165D-07      0.149D-08       -79.25654814    134.834755   -0.00000    0.00000   -0.00000    0    orth

 Final occupancy:   9

 !RHF STATE 1.1 Energy                -79.256548139154
 Nuclear energy                        42.04198637
 One-electron energy                 -188.71591190
 Two-electron energy                   67.41737739
 Virial quotient                       -1.00298547
 !RHF STATE 1.1 Dipole moment          -0.00000000     0.00000000    -0.00000000
 Dipole moment /Debye                  -0.00000000     0.00000000    -0.00000000

 Orbital energies:

         1.1          2.1          3.1          4.1          5.1          6.1          7.1          8.1          9.1         10.1
    -11.217982   -11.217356    -1.016856    -0.828096    -0.596616    -0.596616    -0.502485    -0.482286    -0.482286     0.139788

        11.1
      0.183813

 HOMO      9.1    -0.482286 =     -13.1237eV
 LUMO     10.1     0.139788 =       3.8038eV
 LUMO-HOMO         0.622074 =      16.9275eV


 **********************************************************************************************************************************
 DATASETS  * FILE   NREC   LENGTH (MB)   RECORD NAMES
              1      19       23.30       500      610      700      900      950      970     1000      129      960     1100   
                                          VAR    BASINP    GEOM    SYMINP    ZMAT    AOBASIS   BASIS     P2S    ABASIS      S 
                                         1400     1410     1200     1210     1080     1600     1650     1700     2100   
                                           T        V       H0       H01     AOSYM     SMH    MOLCAS    OPER      RHF  

              2       5        3.72       700     1000      520     2100     5600   
                                         GEOM     BASIS   MCVARS     RHF     GINFO   

 PROGRAMS   *        TOTAL       RHF   CCSD(T)       RHF       INT
 CPU TIMES  *        74.86      4.59     19.02      2.28      2.35
 REAL TIME  *        93.10 SEC
 DISK USED  *         1.30 GB      
 SF USED    *       117.92 MB      
 GA USED    *         0.00 MB       (max)       0.00 MB       (current)
 **********************************************************************************************************************************


 PROGRAM * CCSD (Closed-shell coupled cluster)     Authors: C. Hampel, H.-J. Werner, 1991, M. Deegan, P.J. Knowles, 1992


 Convergence thresholds:  THRVAR = 1.00D-12  THRDEN = 1.00D-08

 CCSD(T)     terms to be evaluated (factor= 1.000)


 Number of core orbitals:           2 (   2 )
 Number of closed-shell orbitals:   7 (   7 )
 Number of external orbitals:     135 ( 135 )

 Molecular orbitals read from record     2100.1  Type=RHF/CANONICAL (state 1.1)

 Number of N-1 electron functions:               7
 Number of N-2 electron functions:              28
 Number of singly external CSFs:               945
 Number of doubly external CSFs:            446985
 Total number of CSFs:                      447931

 Length of J-op  integral file:               0.00 MB
 Length of K-op  integral file:               1.43 MB
 Length of 3-ext integral record:             0.00 MB

 Memory could be reduced to 25.00 Mwords without degradation in triples

 Integral transformation finished. Total CPU:   1.46 sec, npass=  1  Memory used:  13.46 MW

 Reference energy:                    -79.25654814

 MP2 singlet pair energy:              -0.25947658
 MP2 triplet pair energy:              -0.11134919
 MP2 correlation energy:               -0.37082577
 MP2 total energy:                    -79.62737391

 SCS-MP2 correlation energy:           -0.38065584   (PS=  1.200000  PT=  0.333333)
 SCS-MP2 total energy:                -79.63720398

 ITER.      SQ.NORM     CORR.ENERGY   TOTAL ENERGY   ENERGY CHANGE        DEN1      VAR(S)    VAR(P)  DIIS     TIME  TIME/IT
   1      1.13195784    -0.40006819   -79.65661633    -0.02924242    -0.01929197  0.95D-03  0.19D-02  1  1     2.16     0.74
   2      1.14194070    -0.40206302   -79.65861116    -0.00199483    -0.01007832  0.23D-04  0.17D-03  2  2     2.92     0.78
   3      1.14456313    -0.40215890   -79.65870704    -0.00009588    -0.00166725  0.26D-05  0.11D-04  3  3     3.66     0.78
   4      1.14519593    -0.40217989   -79.65872803    -0.00002100    -0.00027973  0.20D-06  0.55D-06  4  4     4.42     0.79
   5      1.14528129    -0.40218068   -79.65872882    -0.00000079    -0.00003243  0.22D-07  0.41D-07  5  5     5.17     0.79
   6      1.14529008    -0.40217937   -79.65872751     0.00000131    -0.00000373  0.25D-08  0.30D-08  6  6     5.92     0.80
   7      1.14529001    -0.40217926   -79.65872739     0.00000011     0.00000008  0.23D-09  0.25D-09  6  2     6.67     0.80
   8      1.14529035    -0.40217928   -79.65872742    -0.00000002    -0.00000020  0.30D-10  0.15D-10  6  1     7.42     0.80
   9      1.14529038    -0.40217926   -79.65872740     0.00000001    -0.00000003  0.35D-11  0.19D-11  6  3     8.13     0.80
  10      1.14529034    -0.40217927   -79.65872740    -0.00000000     0.00000006  0.41D-12  0.18D-12  6  4     8.90     0.80
  11      1.14529031    -0.40217927   -79.65872741    -0.00000000     0.00000002  0.27D-13  0.20D-13  6  5     9.64     0.80

 Norm of t1 vector:      0.04084077      S-energy:     0.00000000      T1 diagnostic:  0.00771818
                                                                       D1 diagnostic:  0.01305787

 Total CPU time for triples:      8.92 sec


 RESULTS
 =======

  Reference energy                    -79.256548139154
  CCSD singlet pair energy             -0.296571060550
  CCSD triplet pair energy             -0.105608206391
  CCSD correlation energy              -0.402179266082

  Triples (T) contribution             -0.013679144390
  Total correlation energy             -0.415858410472

  CCSD total energy                   -79.658727405236
  CCSD[T] energy                      -79.672762324936
  CCSD-T energy                       -79.672255042277
 !CCSD(T) total energy                -79.672406549626

 Timing summary (sec):

 STEP                 CPU(USER)    SYS     CPU(TOT)    WALL
 Transformation          1.47      0.20      1.67      1.65
 CCSD iterations         8.18      0.67      8.85      8.81
 Triples                 8.92      0.19      9.11      9.12

 Program statistics:

 Available memory in ccsd:               499998072
 Min. memory needed in ccsd:               1437889
 Max. memory used in ccsd:                 1802974
 Max. memory used in cckext:               1340122 (11 integral passes)



 **********************************************************************************************************************************
 DATASETS  * FILE   NREC   LENGTH (MB)   RECORD NAMES
              1      20      100.05       500      610      700      900      950      970     1000      129      960     1100   
                                          VAR    BASINP    GEOM    SYMINP    ZMAT    AOBASIS   BASIS     P2S    ABASIS      S 
                                         1400     1410     1200     1210     1080     1600     1650     1700     2100     1380   
                                           T        V       H0       H01     AOSYM     SMH    MOLCAS    OPER      RHF     JKOP   

              2       5        3.72       700     1000      520     2100     5600   
                                         GEOM     BASIS   MCVARS     RHF     GINFO   

 PROGRAMS   *        TOTAL   CCSD(T)   CCSD(T)       RHF       INT
 CPU TIMES  *        93.46     18.60     19.02      2.28      2.35
 REAL TIME  *       112.94 SEC
 DISK USED  *         1.30 GB      
 SF USED    *       117.92 MB      
 GA USED    *         0.00 MB       (max)       0.00 MB       (current)
 **********************************************************************************************************************************
 Starting task   4   Incrementing displacement  2 by -1.   CPU=   74.79 sec, Elapsed=   77.88 sec


 Recomputing integrals since geometry changed


 PROGRAM * SEWARD (Integral evaluation for generally contracted gaussian basis sets)     Author: Roland Lindh, 1990

 Geometry written to block  1 of record 700


 Point group  C1  



 ATOMIC COORDINATES

 NR  ATOM    CHARGE       X              Y              Z

   1  C       6.00  -12.257619099    8.455176908   -2.676832892
   2  C       6.00   -9.386968310    8.455173821   -2.676830212
   3  H       1.00  -12.973124196    9.770259166   -4.147003590
   4  H       1.00  -12.973128073    9.070841530   -0.802854570
   5  H       1.00  -12.973128690    6.524432342   -3.080642521
   6  H       1.00   -8.671458728   10.385918376   -2.273020518
   7  H       1.00   -8.671459334    7.839509266   -4.550808555
   8  H       1.00   -8.671463206    7.140091516   -1.206659559

 Bond lengths in Bohr (Angstrom)

 1-2  2.870650790  1-3  2.098282814  1-4  2.098282814  1-5  2.098282814  2-6  2.098282814
     ( 1.519082978)     ( 1.110363447)     ( 1.110363447)     ( 1.110363447)     ( 1.110363447)

 2-7  2.098282814  2-8  2.098282814
     ( 1.110363447)     ( 1.110363447)

 Bond angles

  1-2-6  109.93762072   1-2-7  109.93762089   1-2-8  109.93762094   2-1-3  109.93762076

  2-1-4  109.93762081   2-1-5  109.93762097   3-1-4  109.00082050   3-1-5  109.00082050

  4-1-5  109.00082049   6-2-7  109.00082050   6-2-8  109.00082050   7-2-8  109.00082049

 NUCLEAR CHARGE:                   18
 NUMBER OF PRIMITIVE AOS:         196
 NUMBER OF SYMMETRY AOS:          180
 NUMBER OF CONTRACTIONS:          144   ( 144A   )
 NUMBER OF CORE ORBITALS:           2   (   2A   )
 NUMBER OF VALENCE ORBITALS:       14   (  14A   )


 NUCLEAR REPULSION ENERGY   42.03146833


 Eigenvalues of metric

         1 0.124E-02 0.135E-02 0.168E-02 0.179E-02 0.179E-02 0.181E-02 0.181E-02 0.338E-02


 Contracted 2-electron integrals neglected if value below      1.0D-12
 AO integral compression algorithm  1   Integral accuracy      1.0D-12

     284.951 MB (compressed) written to integral file ( 58.2%)

     Node minimum: 92.799 MB, node maximum: 98.828 MB


 NUMBER OF SORTED TWO-ELECTRON INTEGRALS:   18170820.     BUFFER LENGTH:  32768
 NUMBER OF SEGMENTS:   2  SEGMENT LENGTH:   15995235      RECORD LENGTH: 524288

 Memory used in sort:      16.55 MW

 SORT1 READ    61135278. AND WROTE    17915401. INTEGRALS IN     53 RECORDS. CPU TIME:     0.83 SEC, REAL TIME:     0.99 SEC
 SORT2 READ    53720035. AND WROTE    54502020. INTEGRALS IN   1068 RECORDS. CPU TIME:     0.34 SEC, REAL TIME:     0.49 SEC

 Node minimum:    18163860.  Node maximum:    18170820. integrals

 OPERATOR DM      FOR CENTER  0  COORDINATES:    0.000000    0.000000    0.000000

 PROGRAM * RHF-SCF (CLOSED SHELL)       Authors: W. Meyer, H.-J. Werner


 NUMBER OF ELECTRONS:       9+    9-    SPACE SYMMETRY=1    SPIN SYMMETRY: Singlet 
 CONVERGENCE THRESHOLDS:    1.00E-07 (Density)    1.00E-09 (Energy)
 MAX. NUMBER OF ITERATIONS:       60
 INTERPOLATION TYPE:            DIIS
 INTERPOLATION STEPS:              2 (START)      1 (STEP)
 LEVEL SHIFTS:                  0.00 (CLOSED)  0.00 (OPEN) 

 Number of closed-shell orbitals:    9 (   9 )


 Molecular orbitals read from record     2100.2  Type=RHF/CANONICAL (state 1.1)

 Molecular orbital dump at record        2100.1

 ITERATION    DDIFF          GRAD             ENERGY        2-EL.EN.            DIPOLE MOMENTS         DIIS   ORB.
    1      0.000D+00      0.000D+00       -79.25677434    134.811233    0.00000    0.00000   -0.00000    0    start
    2      0.000D+00      0.297D-04       -79.25677527    134.813058    0.00000    0.00000   -0.00000    1    diag
    3      0.386D-04      0.513D-05       -79.25677532    134.812143    0.00000    0.00000   -0.00000    2    diag
    4      0.710D-05      0.104D-05       -79.25677532    134.812664    0.00000    0.00000   -0.00000    3    diag
    5      0.147D-05      0.384D-06       -79.25677532    134.812465    0.00000    0.00000   -0.00000    4    diag
    6      0.498D-06      0.544D-07       -79.25677532    134.812474    0.00000    0.00000   -0.00000    5    diag
    7      0.107D-06      0.876D-08       -79.25677532    134.812474    0.00000    0.00000   -0.00000    6    diag
    8      0.163D-07      0.148D-08       -79.25677532    134.812474    0.00000    0.00000   -0.00000    0    orth

 Final occupancy:   9

 !RHF STATE 1.1 Energy                -79.256775322621
 Nuclear energy                        42.03146833
 One-electron energy                 -188.69448064
 Two-electron energy                   67.40623699
 Virial quotient                       -1.00299661
 !RHF STATE 1.1 Dipole moment           0.00000000     0.00000000    -0.00000000
 Dipole moment /Debye                   0.00000000     0.00000000    -0.00000000

 Orbital energies:

         1.1          2.1          3.1          4.1          5.1          6.1          7.1          8.1          9.1         10.1
    -11.218079   -11.217453    -1.016629    -0.828784    -0.596037    -0.596037    -0.503807    -0.482088    -0.482088     0.139857

        11.1
      0.183446

 HOMO      9.1    -0.482088 =     -13.1183eV
 LUMO     10.1     0.139857 =       3.8057eV
 LUMO-HOMO         0.621946 =      16.9240eV


 **********************************************************************************************************************************
 DATASETS  * FILE   NREC   LENGTH (MB)   RECORD NAMES
              1      19       23.30       500      610      700      900      950      970     1000      129      960     1100   
                                          VAR    BASINP    GEOM    SYMINP    ZMAT    AOBASIS   BASIS     P2S    ABASIS      S 
                                         1400     1410     1200     1210     1080     1600     1650     1700     2100   
                                           T        V       H0       H01     AOSYM     SMH    MOLCAS    OPER      RHF  

              2       5        3.72       700     1000      520     2100     5600   
                                         GEOM     BASIS   MCVARS     RHF     GINFO   

 PROGRAMS   *        TOTAL       RHF   CCSD(T)       RHF       INT
 CPU TIMES  *        97.97      4.50     19.02      2.28      2.35
 REAL TIME  *       119.04 SEC
 DISK USED  *         1.30 GB      
 SF USED    *       117.92 MB      
 GA USED    *         0.00 MB       (max)       0.00 MB       (current)
 **********************************************************************************************************************************


 PROGRAM * CCSD (Closed-shell coupled cluster)     Authors: C. Hampel, H.-J. Werner, 1991, M. Deegan, P.J. Knowles, 1992


 Convergence thresholds:  THRVAR = 1.00D-12  THRDEN = 1.00D-08

 CCSD(T)     terms to be evaluated (factor= 1.000)


 Number of core orbitals:           2 (   2 )
 Number of closed-shell orbitals:   7 (   7 )
 Number of external orbitals:     135 ( 135 )

 Molecular orbitals read from record     2100.1  Type=RHF/CANONICAL (state 1.1)

 Number of N-1 electron functions:               7
 Number of N-2 electron functions:              28
 Number of singly external CSFs:               945
 Number of doubly external CSFs:            446985
 Total number of CSFs:                      447931

 Length of J-op  integral file:               0.00 MB
 Length of K-op  integral file:               1.43 MB
 Length of 3-ext integral record:             0.00 MB

 Memory could be reduced to 25.00 Mwords without degradation in triples

 Integral transformation finished. Total CPU:   1.49 sec, npass=  1  Memory used:  13.46 MW

 Reference energy:                    -79.25677532

 MP2 singlet pair energy:              -0.25945720
 MP2 triplet pair energy:              -0.11134063
 MP2 correlation energy:               -0.37079783
 MP2 total energy:                    -79.62757315

 SCS-MP2 correlation energy:           -0.38062725   (PS=  1.200000  PT=  0.333333)
 SCS-MP2 total energy:                -79.63740258

 ITER.      SQ.NORM     CORR.ENERGY   TOTAL ENERGY   ENERGY CHANGE        DEN1      VAR(S)    VAR(P)  DIIS     TIME  TIME/IT
   1      1.13194724    -0.40004410   -79.65681942    -0.02924627    -0.01929700  0.95D-03  0.19D-02  1  1     2.23     0.74
   2      1.14192785    -0.40203752   -79.65881285    -0.00199342    -0.01007663  0.23D-04  0.17D-03  2  2     2.99     0.78
   3      1.14454940    -0.40213359   -79.65890891    -0.00009606    -0.00166651  0.26D-05  0.11D-04  3  3     3.72     0.78
   4      1.14518219    -0.40215453   -79.65892985    -0.00002094    -0.00027974  0.20D-06  0.55D-06  4  4     4.48     0.79
   5      1.14526750    -0.40215532   -79.65893064    -0.00000079    -0.00003241  0.22D-07  0.41D-07  5  5     5.24     0.80
   6      1.14527630    -0.40215400   -79.65892933     0.00000131    -0.00000373  0.24D-08  0.30D-08  6  6     6.01     0.80
   7      1.14527622    -0.40215389   -79.65892921     0.00000011     0.00000008  0.23D-09  0.25D-09  6  2     6.76     0.80
   8      1.14527656    -0.40215391   -79.65892924    -0.00000002    -0.00000020  0.29D-10  0.15D-10  6  1     7.50     0.80
   9      1.14527659    -0.40215390   -79.65892922     0.00000001    -0.00000003  0.33D-11  0.19D-11  6  3     8.26     0.80
  10      1.14527654    -0.40215390   -79.65892922    -0.00000000     0.00000006  0.39D-12  0.17D-12  6  4     9.02     0.80
  11      1.14527652    -0.40215390   -79.65892923    -0.00000000     0.00000002  0.26D-13  0.19D-13  6  5     9.77     0.80

 Norm of t1 vector:      0.04084788      S-energy:     0.00000000      T1 diagnostic:  0.00771952
                                                                       D1 diagnostic:  0.01307675

 Total CPU time for triples:      8.98 sec


 RESULTS
 =======

  Reference energy                    -79.256775322621
  CCSD singlet pair energy             -0.296547885530
  CCSD triplet pair energy             -0.105606018524
  CCSD correlation energy              -0.402153902401

  Triples (T) contribution             -0.013675816062
  Total correlation energy             -0.415829718462

  CCSD total energy                   -79.658929225022
  CCSD[T] energy                      -79.672961071659
  CCSD-T energy                       -79.672453495129
 !CCSD(T) total energy                -79.672605041083

 Timing summary (sec):

 STEP                 CPU(USER)    SYS     CPU(TOT)    WALL
 Transformation          1.51      0.18      1.69      1.69
 CCSD iterations         8.26      0.65      8.91      8.86
 Triples                 8.98      0.19      9.17      9.16

 Program statistics:

 Available memory in ccsd:               499998072
 Min. memory needed in ccsd:               1437889
 Max. memory used in ccsd:                 1802974
 Max. memory used in cckext:               1340122 (11 integral passes)



 **********************************************************************************************************************************
 DATASETS  * FILE   NREC   LENGTH (MB)   RECORD NAMES
              1      20      100.05       500      610      700      900      950      970     1000      129      960     1100   
                                          VAR    BASINP    GEOM    SYMINP    ZMAT    AOBASIS   BASIS     P2S    ABASIS      S 
                                         1400     1410     1200     1210     1080     1600     1650     1700     2100     1380   
                                           T        V       H0       H01     AOSYM     SMH    MOLCAS    OPER      RHF     JKOP   

              2       5        3.72       700     1000      520     2100     5600   
                                         GEOM     BASIS   MCVARS     RHF     GINFO   

 PROGRAMS   *        TOTAL   CCSD(T)   CCSD(T)       RHF       INT
 CPU TIMES  *       116.75     18.78     19.02      2.28      2.35
 REAL TIME  *       139.16 SEC
 DISK USED  *         1.30 GB      
 SF USED    *       117.92 MB      
 GA USED    *         0.00 MB       (max)       0.00 MB       (current)
 **********************************************************************************************************************************
 Starting task   5   Incrementing displacement  3 by  1.   CPU=   99.78 sec, Elapsed=  104.10 sec


 Recomputing integrals since geometry changed


 PROGRAM * SEWARD (Integral evaluation for generally contracted gaussian basis sets)     Author: Roland Lindh, 1990

 Geometry written to block  1 of record 700


 Point group  C1  



 ATOMIC COORDINATES

 NR  ATOM    CHARGE       X              Y              Z

   1  C       6.00  -12.258256720    8.455176909   -2.676832893
   2  C       6.00   -9.386330689    8.455173820   -2.676830212
   3  H       1.00  -12.970757310    9.773761450   -4.150918902
   4  H       1.00  -12.970761196    9.072481145   -0.797863842
   5  H       1.00  -12.970761816    6.519290435   -3.081717931
   6  H       1.00   -8.673825602   10.391060283   -2.271945108
   7  H       1.00   -8.673826210    7.837869651   -4.555799284
   8  H       1.00   -8.673830093    7.136589232   -1.202744248

 Bond lengths in Bohr (Angstrom)

 1-2  2.871926031  1-3  2.102201665  1-4  2.102201666  1-5  2.102201666  2-6  2.102201666
     ( 1.519757807)     ( 1.112437214)     ( 1.112437214)     ( 1.112437214)     ( 1.112437214)

 2-7  2.102201666  2-8  2.102201666
     ( 1.112437214)     ( 1.112437214)

 Bond angles

  1-2-6  109.81181816   1-2-7  109.81181833   1-2-8  109.81181839   2-1-3  109.81181820

  2-1-4  109.81181825   2-1-5  109.81181842   3-1-4  109.12848598   3-1-5  109.12848598

  4-1-5  109.12848597   6-2-7  109.12848598   6-2-8  109.12848597   7-2-8  109.12848597

 NUCLEAR CHARGE:                   18
 NUMBER OF PRIMITIVE AOS:         196
 NUMBER OF SYMMETRY AOS:          180
 NUMBER OF CONTRACTIONS:          144   ( 144A   )
 NUMBER OF CORE ORBITALS:           2   (   2A   )
 NUMBER OF VALENCE ORBITALS:       14   (  14A   )


 NUCLEAR REPULSION ENERGY   41.98730642


 Eigenvalues of metric

         1 0.125E-02 0.136E-02 0.168E-02 0.180E-02 0.180E-02 0.183E-02 0.183E-02 0.339E-02


 Contracted 2-electron integrals neglected if value below      1.0D-12
 AO integral compression algorithm  1   Integral accuracy      1.0D-12

     284.951 MB (compressed) written to integral file ( 58.2%)

     Node minimum: 92.013 MB, node maximum: 98.566 MB


 NUMBER OF SORTED TWO-ELECTRON INTEGRALS:   18170820.     BUFFER LENGTH:  32768
 NUMBER OF SEGMENTS:   2  SEGMENT LENGTH:   15995235      RECORD LENGTH: 524288

 Memory used in sort:      16.55 MW

 SORT1 READ    61135278. AND WROTE    17914916. INTEGRALS IN     53 RECORDS. CPU TIME:     0.82 SEC, REAL TIME:     0.99 SEC
 SORT2 READ    53718343. AND WROTE    54502020. INTEGRALS IN   1053 RECORDS. CPU TIME:     0.34 SEC, REAL TIME:     0.48 SEC

 Node minimum:    18163860.  Node maximum:    18170820. integrals

 OPERATOR DM      FOR CENTER  0  COORDINATES:    0.000000    0.000000    0.000000

 PROGRAM * RHF-SCF (CLOSED SHELL)       Authors: W. Meyer, H.-J. Werner


 NUMBER OF ELECTRONS:       9+    9-    SPACE SYMMETRY=1    SPIN SYMMETRY: Singlet 
 CONVERGENCE THRESHOLDS:    1.00E-07 (Density)    1.00E-09 (Energy)
 MAX. NUMBER OF ITERATIONS:       60
 INTERPOLATION TYPE:            DIIS
 INTERPOLATION STEPS:              2 (START)      1 (STEP)
 LEVEL SHIFTS:                  0.00 (CLOSED)  0.00 (OPEN) 

 Number of closed-shell orbitals:    9 (   9 )


 Molecular orbitals read from record     2100.2  Type=RHF/CANONICAL (state 1.1)

 Molecular orbital dump at record        2100.1

 ITERATION    DDIFF          GRAD             ENERGY        2-EL.EN.            DIPOLE MOMENTS         DIIS   ORB.
    1      0.000D+00      0.000D+00       -79.25623612    134.751490    0.00000    0.00000   -0.00000    0    start
    2      0.000D+00      0.603D-04       -79.25623961    134.724233   -0.00000    0.00000   -0.00000    1    diag
    3      0.145D-03      0.150D-04       -79.25623983    134.733809   -0.00000    0.00000   -0.00000    2    diag
    4      0.206D-04      0.497D-05       -79.25623986    134.730812   -0.00000    0.00000   -0.00000    3    diag
    5      0.577D-05      0.481D-06       -79.25623986    134.730916   -0.00000    0.00000   -0.00000    4    diag
    6      0.655D-06      0.996D-07       -79.25623986    134.730906   -0.00000    0.00000   -0.00000    5    diag
    7      0.171D-06      0.156D-07       -79.25623986    134.730906   -0.00000    0.00000   -0.00000    6    diag
    8      0.337D-07      0.219D-08       -79.25623986    134.730906   -0.00000    0.00000   -0.00000    0    orth

 Final occupancy:   9

 !RHF STATE 1.1 Energy                -79.256239861555
 Nuclear energy                        41.98730642
 One-electron energy                 -188.60899907
 Two-electron energy                   67.36545279
 Virial quotient                       -1.00321091
 !RHF STATE 1.1 Dipole moment          -0.00000000     0.00000000    -0.00000000
 Dipole moment /Debye                  -0.00000000     0.00000000    -0.00000000

 Orbital energies:

         1.1          2.1          3.1          4.1          5.1          6.1          7.1          8.1          9.1         10.1
    -11.218920   -11.218296    -1.016161    -0.827636    -0.595788    -0.595788    -0.502955    -0.481751    -0.481751     0.139687

        11.1
      0.183509

 HOMO      9.1    -0.481751 =     -13.1091eV
 LUMO     10.1     0.139687 =       3.8011eV
 LUMO-HOMO         0.621438 =      16.9102eV


 **********************************************************************************************************************************
 DATASETS  * FILE   NREC   LENGTH (MB)   RECORD NAMES
              1      19       23.30       500      610      700      900      950      970     1000      129      960     1100   
                                          VAR    BASINP    GEOM    SYMINP    ZMAT    AOBASIS   BASIS     P2S    ABASIS      S 
                                         1400     1410     1200     1210     1080     1600     1650     1700     2100   
                                           T        V       H0       H01     AOSYM     SMH    MOLCAS    OPER      RHF  

              2       5        3.72       700     1000      520     2100     5600   
                                         GEOM     BASIS   MCVARS     RHF     GINFO   

 PROGRAMS   *        TOTAL       RHF   CCSD(T)       RHF       INT
 CPU TIMES  *       121.10      4.35     19.02      2.28      2.35
 REAL TIME  *       145.06 SEC
 DISK USED  *         1.30 GB      
 SF USED    *       117.92 MB      
 GA USED    *         0.00 MB       (max)       0.00 MB       (current)
 **********************************************************************************************************************************


 PROGRAM * CCSD (Closed-shell coupled cluster)     Authors: C. Hampel, H.-J. Werner, 1991, M. Deegan, P.J. Knowles, 1992


 Convergence thresholds:  THRVAR = 1.00D-12  THRDEN = 1.00D-08

 CCSD(T)     terms to be evaluated (factor= 1.000)


 Number of core orbitals:           2 (   2 )
 Number of closed-shell orbitals:   7 (   7 )
 Number of external orbitals:     135 ( 135 )

 Molecular orbitals read from record     2100.1  Type=RHF/CANONICAL (state 1.1)

 Number of N-1 electron functions:               7
 Number of N-2 electron functions:              28
 Number of singly external CSFs:               945
 Number of doubly external CSFs:            446985
 Total number of CSFs:                      447931

 Length of J-op  integral file:               0.00 MB
 Length of K-op  integral file:               1.43 MB
 Length of 3-ext integral record:             0.00 MB

 Memory could be reduced to 25.00 Mwords without degradation in triples

 Integral transformation finished. Total CPU:   1.48 sec, npass=  1  Memory used:  13.46 MW

 Reference energy:                    -79.25623986

 MP2 singlet pair energy:              -0.25955927
 MP2 triplet pair energy:              -0.11133082
 MP2 correlation energy:               -0.37089010
 MP2 total energy:                    -79.62712996

 SCS-MP2 correlation energy:           -0.38074364   (PS=  1.200000  PT=  0.333333)
 SCS-MP2 total energy:                -79.63698350

 ITER.      SQ.NORM     CORR.ENERGY   TOTAL ENERGY   ENERGY CHANGE        DEN1      VAR(S)    VAR(P)  DIIS     TIME  TIME/IT
   1      1.13221591    -0.40015577   -79.65639563    -0.02926567    -0.01928331  0.95D-03  0.19D-02  1  1     2.20     0.73
   2      1.14224919    -0.40215997   -79.65839983    -0.00200420    -0.01010686  0.23D-04  0.17D-03  2  2     2.95     0.77
   3      1.14489574    -0.40225765   -79.65849751    -0.00009768    -0.00167912  0.26D-05  0.11D-04  3  3     3.68     0.77
   4      1.14553514    -0.40227883   -79.65851869    -0.00002118    -0.00028237  0.20D-06  0.56D-06  4  4     4.43     0.78
   5      1.14562129    -0.40227968   -79.65851954    -0.00000085    -0.00003266  0.22D-07  0.41D-07  5  5     5.17     0.78
   6      1.14563019    -0.40227836   -79.65851822     0.00000132    -0.00000377  0.25D-08  0.31D-08  6  6     5.94     0.79
   7      1.14563011    -0.40227824   -79.65851810     0.00000012     0.00000008  0.23D-09  0.26D-09  6  2     6.69     0.79
   8      1.14563045    -0.40227826   -79.65851813    -0.00000002    -0.00000020  0.29D-10  0.15D-10  6  1     7.44     0.79
   9      1.14563048    -0.40227825   -79.65851811     0.00000001    -0.00000003  0.34D-11  0.19D-11  6  3     8.21     0.80
  10      1.14563044    -0.40227825   -79.65851811    -0.00000000     0.00000006  0.40D-12  0.18D-12  6  4     8.99     0.80
  11      1.14563041    -0.40227825   -79.65851812    -0.00000000     0.00000002  0.27D-13  0.20D-13  6  5     9.74     0.80

 Norm of t1 vector:      0.04094608      S-energy:     0.00000000      T1 diagnostic:  0.00773808
                                                                       D1 diagnostic:  0.01309452

 Total CPU time for triples:      8.85 sec


 RESULTS
 =======

  Reference energy                    -79.256239861555
  CCSD singlet pair energy             -0.296720177429
  CCSD triplet pair energy             -0.105558078111
  CCSD correlation energy              -0.402278253917

  Triples (T) contribution             -0.013704263282
  Total correlation energy             -0.415982517199

  CCSD total energy                   -79.658518115472
  CCSD[T] energy                      -79.672580760116
  CCSD-T energy                       -79.672069755378
 !CCSD(T) total energy                -79.672222378754

 Timing summary (sec):

 STEP                 CPU(USER)    SYS     CPU(TOT)    WALL
 Transformation          1.49      0.18      1.67      1.66
 CCSD iterations         8.25      0.62      8.87      8.83
 Triples                 8.85      0.18      9.03      9.03

 Program statistics:

 Available memory in ccsd:               499998072
 Min. memory needed in ccsd:               1437889
 Max. memory used in ccsd:                 1802974
 Max. memory used in cckext:               1340122 (11 integral passes)



 **********************************************************************************************************************************
 DATASETS  * FILE   NREC   LENGTH (MB)   RECORD NAMES
              1      20      100.05       500      610      700      900      950      970     1000      129      960     1100   
                                          VAR    BASINP    GEOM    SYMINP    ZMAT    AOBASIS   BASIS     P2S    ABASIS      S 
                                         1400     1410     1200     1210     1080     1600     1650     1700     2100     1380   
                                           T        V       H0       H01     AOSYM     SMH    MOLCAS    OPER      RHF     JKOP   

              2       5        3.72       700     1000      520     2100     5600   
                                         GEOM     BASIS   MCVARS     RHF     GINFO   

 PROGRAMS   *        TOTAL   CCSD(T)   CCSD(T)       RHF       INT
 CPU TIMES  *       139.72     18.62     19.02      2.28      2.35
 REAL TIME  *       164.65 SEC
 DISK USED  *         1.30 GB      
 SF USED    *       117.92 MB      
 GA USED    *         0.00 MB       (max)       0.00 MB       (current)
 **********************************************************************************************************************************
 Starting task   6   Incrementing displacement  3 by -1.   CPU=  124.39 sec, Elapsed=  129.59 sec


 Recomputing integrals since geometry changed


 PROGRAM * SEWARD (Integral evaluation for generally contracted gaussian basis sets)     Author: Roland Lindh, 1990

 Geometry written to block  1 of record 700


 Point group  C1  



 ATOMIC COORDINATES

 NR  ATOM    CHARGE       X              Y              Z

   1  C       6.00  -12.257130435    8.455176908   -2.676832892
   2  C       6.00   -9.387456974    8.455173821   -2.676830213
   3  H       1.00  -12.967859237    9.768690796   -4.145250262
   4  H       1.00  -12.967863109    9.070107284   -0.805089470
   5  H       1.00  -12.967863726    6.526734941   -3.080160934
   6  H       1.00   -8.676723692   10.383615777   -2.273502105
   7  H       1.00   -8.676724298    7.840243512   -4.548573656
[...]

 SCS-MP2 correlation energy:           -0.37975760   (PS=  1.200000  PT=  0.333333)
 SCS-MP2 total energy:                -79.63947326

 ITER.      SQ.NORM     CORR.ENERGY   TOTAL ENERGY   ENERGY CHANGE        DEN1      VAR(S)    VAR(P)  DIIS     TIME  TIME/IT
   1      1.13004706    -0.39919891   -79.65891456    -0.02911982    -0.01941884  0.90D-03  0.18D-02  1  1     1.82     0.63
   2      1.13962593    -0.40110700   -79.66082266    -0.00190810    -0.00984460  0.22D-04  0.15D-03  2  2     2.46     0.66
   3      1.14206186    -0.40119086   -79.66090652    -0.00008386    -0.00157313  0.25D-05  0.99D-05  3  3     3.09     0.66
   4      1.14264492    -0.40121026   -79.66092592    -0.00001940    -0.00025967  0.18D-06  0.49D-06  4  4     3.73     0.67
   5      1.14272379    -0.40121066   -79.66092632    -0.00000040    -0.00003050  0.19D-07  0.36D-07  5  5     4.37     0.67
   6      1.14273182    -0.40120943   -79.66092508     0.00000124    -0.00000346  0.22D-08  0.26D-08  6  6     5.00     0.68
   7      1.14273175    -0.40120934   -79.66092499     0.00000009     0.00000008  0.20D-09  0.21D-09  6  2     5.65     0.68
   8      1.14273207    -0.40120936   -79.66092501    -0.00000002    -0.00000020  0.25D-10  0.13D-10  6  1     6.28     0.68
   9      1.14273209    -0.40120934   -79.66092500     0.00000001    -0.00000002  0.29D-11  0.16D-11  6  3     6.91     0.68
  10      1.14273206    -0.40120935   -79.66092500    -0.00000000     0.00000005  0.32D-12  0.14D-12  6  4     7.54     0.68
  11      1.14273202    -0.40120935   -79.66092500    -0.00000000     0.00000002  0.20D-13  0.16D-13  6  1     8.19     0.68

 Norm of t1 vector:      0.03994271      S-energy:     0.00000000      T1 diagnostic:  0.00754846
                                                                       D1 diagnostic:  0.01291849

 Total CPU time for triples:      6.90 sec


 RESULTS
 =======

  Reference energy                    -79.259715653740
  CCSD singlet pair energy             -0.295311858564
  CCSD triplet pair energy             -0.105897490591
  CCSD correlation energy              -0.401209346737

  Triples (T) contribution             -0.013483904136
  Total correlation energy             -0.414693250874

  CCSD total energy                   -79.660925000478
  CCSD[T] energy                      -79.674746983839
  CCSD-T energy                       -79.674264244566
 !CCSD(T) total energy                -79.674408904614

 Timing summary (sec):

 STEP                 CPU(USER)    SYS     CPU(TOT)    WALL
 Transformation          1.22      0.19      1.41      1.40
 CCSD iterations         6.97      0.59      7.56      7.52
 Triples                 6.90      0.18      7.08      7.09

 Program statistics:

 Available memory in ccsd:               499991989
 Min. memory needed in ccsd:               1437889
 Max. memory used in ccsd:                 1802974
 Max. memory used in cckext:               1340122 (11 integral passes)



 **********************************************************************************************************************************
 DATASETS  * FILE   NREC   LENGTH (MB)   RECORD NAMES
              1      21      100.35       500      610      700      900      701      950      970     1000      129      960   
                                          VAR    BASINP    GEOM    SYMINP    GEOM     ZMAT    AOBASIS   BASIS     P2S    ABASIS    
                                         1100     1400     1410     1200     1210     1080     1600     1650     1700     2100   
                                           S        T        V       H0       H01     AOSYM     SMH    MOLCAS    OPER      RHF  
                                         1380   
                                         JKOP   

              2       7        4.06       700     1000      520     2100     5600      701     5500   
                                         GEOM     BASIS   MCVARS     RHF     GINFO    GEOM     HINFO   

 PROGRAMS   *        TOTAL   CCSD(T)      OPTG   CCSD(T)       RHF       INT
 CPU TIMES  *      2363.32     15.12   1074.00     19.02      2.28      2.35
 REAL TIME  *      2617.42 SEC
 DISK USED  *         1.31 GB      
 SF USED    *       117.92 MB      
 GA USED    *         0.00 MB       (max)       0.00 MB       (current)
 **********************************************************************************************************************************
 Starting task  68.  CPU=  1371.69 sec, Elapsed=  1391.05 sec
 Incrementing variable HY3              by -0.010000 BOH   to    9.727666 BOH
 Incrementing variable CZ2              by -0.010000 BOH   to   -2.686830 BOH


 Recomputing integrals since geometry changed


 PROGRAM * SEWARD (Integral evaluation for generally contracted gaussian basis sets)     Author: Roland Lindh, 1990

 Geometry written to block  1 of record 701


 Point group  C1  



 ATOMIC COORDINATES

 NR  ATOM    CHARGE       X              Y              Z

   1  C       6.00  -12.266987254    8.455176920   -2.676832900
   2  C       6.00   -9.377600155    8.455173813   -2.686830203
   3  H       1.00  -13.013031700    9.727665640   -4.110566274
   4  H       1.00  -13.013035482    9.055582683   -0.849300143
   5  H       1.00  -13.013036070    6.572284841   -3.070634376
   6  H       1.00   -8.631551330   10.338065874   -2.283028665
   7  H       1.00   -8.631551935    7.854768110   -4.504362984
   8  H       1.00   -8.631555710    7.172685044   -1.243096873

 Bond lengths in Bohr (Angstrom)

 1-2  2.889404395  1-3  2.057037006  1-4  2.063237993  1-5  2.063237994  2-6  2.065169980
     ( 1.529006959)     ( 1.088537106)     ( 1.091818527)     ( 1.091818527)     ( 1.092840890)

 2-7  2.054385642  2-8  2.070199431
     ( 1.087134064)     ( 1.095502361)

 Bond angles

  1-2-6  111.13540944   1-2-7  111.48196149   1-2-8  110.97489044   2-1-3  111.11653754

  2-1-4  111.38628071   2-1-5  111.15718119   3-1-4  107.83092872   3-1-5  107.47911459

  4-1-5  107.69070543   6-2-7  107.95429144   6-2-8  107.35404473   7-2-8  107.76202038

 NUCLEAR CHARGE:                   18
 NUMBER OF PRIMITIVE AOS:         196
 NUMBER OF SYMMETRY AOS:          180
 NUMBER OF CONTRACTIONS:          144   ( 144A   )
 NUMBER OF CORE ORBITALS:           2   (   2A   )
 NUMBER OF VALENCE ORBITALS:       14   (  14A   )


 NUCLEAR REPULSION ENERGY   42.24073348

 Eigenvalues of metric

         1 0.120E-02 0.130E-02 0.165E-02 0.166E-02 0.168E-02 0.169E-02 0.170E-02 0.341E-02


 Contracted 2-electron integrals neglected if value below      1.0D-12
 AO integral compression algorithm  1   Integral accuracy      1.0D-12

     287.048 MB (compressed) written to integral file ( 58.6%)

     Node minimum: 92.013 MB, node maximum: 99.877 MB


 NUMBER OF SORTED TWO-ELECTRON INTEGRALS:   18170820.     BUFFER LENGTH:  32768
 NUMBER OF SEGMENTS:   2  SEGMENT LENGTH:   15995235      RECORD LENGTH: 524288

 Memory used in sort:      16.55 MW

 SORT1 READ    61135278. AND WROTE    18036969. INTEGRALS IN     53 RECORDS. CPU TIME:     0.70 SEC, REAL TIME:     0.85 SEC
 SORT2 READ    54079760. AND WROTE    54502020. INTEGRALS IN   1089 RECORDS. CPU TIME:     0.28 SEC, REAL TIME:     0.42 SEC

 Node minimum:    18163860.  Node maximum:    18170820. integrals

 OPERATOR DM      FOR CENTER  0  COORDINATES:    0.000000    0.000000    0.000000

 PROGRAM * RHF-SCF (CLOSED SHELL)       Authors: W. Meyer, H.-J. Werner


 NUMBER OF ELECTRONS:       9+    9-    SPACE SYMMETRY=1    SPIN SYMMETRY: Singlet 
 CONVERGENCE THRESHOLDS:    1.00E-07 (Density)    1.00E-09 (Energy)
 MAX. NUMBER OF ITERATIONS:       60
 INTERPOLATION TYPE:            DIIS
 INTERPOLATION STEPS:              2 (START)      1 (STEP)
 LEVEL SHIFTS:                  0.00 (CLOSED)  0.00 (OPEN) 

 Number of closed-shell orbitals:    9 (   9 )


 Molecular orbitals read from record     2100.2  Type=RHF/CANONICAL (state 1.1)

 Molecular orbital dump at record        2100.1

 ITERATION    DDIFF          GRAD             ENERGY        2-EL.EN.            DIPOLE MOMENTS         DIIS   ORB.
    1      0.000D+00      0.000D+00       -79.25976670    135.172280   -0.00011   -0.00053    0.00143    0    start
    2      0.000D+00      0.104D-03       -79.25978039    135.179438   -0.00021   -0.00029    0.00038    1    diag
    3      0.238D-03      0.228D-04       -79.25978158    135.176562   -0.00069    0.00030   -0.00222    2    diag
    4      0.415D-04      0.631D-05       -79.25978169    135.178304   -0.00068    0.00039   -0.00256    3    diag
    5      0.101D-04      0.212D-05       -79.25978170    135.177687   -0.00074    0.00044   -0.00277    4    diag
    6      0.357D-05      0.384D-06       -79.25978170    135.177786   -0.00075    0.00045   -0.00282    5    diag
    7      0.769D-06      0.792D-07       -79.25978170    135.177769   -0.00075    0.00045   -0.00282    6    diag
    8      0.196D-06      0.144D-07       -79.25978170    135.177774   -0.00075    0.00045   -0.00282    7    orth
    9      0.296D-07      0.470D-08       -79.25978170    135.177771   -0.00075    0.00045   -0.00282    0    orth

 Final occupancy:   9

 !RHF STATE 1.1 Energy                -79.259781698356
 Nuclear energy                        42.24073348
 One-electron energy                 -189.08940089
 Two-electron energy                   67.58888571
 Virial quotient                       -1.00134081
 !RHF STATE 1.1 Dipole moment          -0.00074944     0.00045094    -0.00281661
 Dipole moment /Debye                  -0.00190476     0.00114610    -0.00715865

 Orbital energies:

         1.1          2.1          3.1          4.1          5.1          6.1          7.1          8.1          9.1         10.1
    -11.211809   -11.211091    -1.016992    -0.841475    -0.596863    -0.595392    -0.508882    -0.487607    -0.485704     0.141173

        11.1
      0.182000

 HOMO      9.1    -0.485704 =     -13.2167eV
 LUMO     10.1     0.141173 =       3.8415eV
 LUMO-HOMO         0.626878 =      17.0582eV


 **********************************************************************************************************************************
 DATASETS  * FILE   NREC   LENGTH (MB)   RECORD NAMES
              1      20       23.60       500      610      700      900      701      950      970     1000      129      960   
                                          VAR    BASINP    GEOM    SYMINP    GEOM     ZMAT    AOBASIS   BASIS     P2S    ABASIS    
                                         1100     1400     1410     1200     1210     1080     1600     1650     1700     2100   
                                           S        T        V       H0       H01     AOSYM     SMH    MOLCAS    OPER      RHF  

              2       7        4.06       700     1000      520     2100     5600      701     5500   
                                         GEOM     BASIS   MCVARS     RHF     GINFO    GEOM     HINFO   

 PROGRAMS   *        TOTAL       RHF      OPTG   CCSD(T)       RHF       INT
 CPU TIMES  *      2367.23      3.91   1074.00     19.02      2.28      2.35
 REAL TIME  *      2622.27 SEC
 DISK USED  *         1.31 GB      
 SF USED    *       117.92 MB      
 GA USED    *         0.00 MB       (max)       0.00 MB       (current)
 **********************************************************************************************************************************


 PROGRAM * CCSD (Closed-shell coupled cluster)     Authors: C. Hampel, H.-J. Werner, 1991, M. Deegan, P.J. Knowles, 1992


 Convergence thresholds:  THRVAR = 1.00D-12  THRDEN = 1.00D-08

 CCSD(T)     terms to be evaluated (factor= 1.000)


 Number of core orbitals:           2 (   2 )
 Number of closed-shell orbitals:   7 (   7 )
 Number of external orbitals:     135 ( 135 )

 Molecular orbitals read from record     2100.1  Type=RHF/CANONICAL (state 1.1)

 Number of N-1 electron functions:               7
 Number of N-2 electron functions:              28
 Number of singly external CSFs:               945
 Number of doubly external CSFs:            446985
 Total number of CSFs:                      447931

 Length of J-op  integral file:               0.00 MB
 Length of K-op  integral file:               1.43 MB
 Length of 3-ext integral record:             0.00 MB

 Memory could be reduced to 25.01 Mwords without degradation in triples

 Integral transformation finished. Total CPU:   1.19 sec, npass=  1  Memory used:  13.46 MW

 Reference energy:                    -79.25978170

 MP2 singlet pair energy:              -0.25868128
 MP2 triplet pair energy:              -0.11136023
 MP2 correlation energy:               -0.37004151
 MP2 total energy:                    -79.62982321

 SCS-MP2 correlation energy:           -0.37970835   (PS=  1.200000  PT=  0.333333)
 SCS-MP2 total energy:                -79.63949005

 ITER.      SQ.NORM     CORR.ENERGY   TOTAL ENERGY   ENERGY CHANGE        DEN1      VAR(S)    VAR(P)  DIIS     TIME  TIME/IT
   1      1.12991881    -0.39915139   -79.65893309    -0.02910988    -0.01942483  0.90D-03  0.18D-02  1  1     1.79     0.63
   2      1.13947092    -0.40105448   -79.66083618    -0.00190309    -0.00982837  0.21D-04  0.15D-03  2  2     2.42     0.65
   3      1.14189648    -0.40113755   -79.66091925    -0.00008307    -0.00156855  0.25D-05  0.99D-05  3  3     3.05     0.66
   4      1.14247696    -0.40115684   -79.66093853    -0.00001929    -0.00025873  0.18D-06  0.49D-06  4  4     3.68     0.67
   5      1.14255555    -0.40115721   -79.66093891    -0.00000037    -0.00003044  0.19D-07  0.36D-07  5  5     4.33     0.67
   6      1.14256349    -0.40115598   -79.66093767     0.00000123    -0.00000342  0.22D-08  0.26D-08  6  6     4.96     0.67
   7      1.14256340    -0.40115589   -79.66093759     0.00000009     0.00000010  0.20D-09  0.21D-09  6  2     5.60     0.68
   8      1.14256371    -0.40115591   -79.66093760    -0.00000002    -0.00000019  0.25D-10  0.13D-10  6  1     6.23     0.68
   9      1.14256373    -0.40115589   -79.66093759     0.00000001    -0.00000002  0.29D-11  0.16D-11  6  3     6.86     0.68
  10      1.14256370    -0.40115590   -79.66093760    -0.00000000     0.00000005  0.32D-12  0.14D-12  6  4     7.50     0.68
  11      1.14256367    -0.40115590   -79.66093760    -0.00000000     0.00000002  0.20D-13  0.16D-13  6  1     8.14     0.68

 Norm of t1 vector:      0.03988979      S-energy:     0.00000000      T1 diagnostic:  0.00753846
                                                                       D1 diagnostic:  0.01290401

 Total CPU time for triples:      6.86 sec


 RESULTS
 =======

  Reference energy                    -79.259781698356
  CCSD singlet pair energy             -0.295233988648
  CCSD triplet pair energy             -0.105921908602
  CCSD correlation energy              -0.401155897129

  Triples (T) contribution             -0.013471082978
  Total correlation energy             -0.414626980107

  CCSD total energy                   -79.660937595485
  CCSD[T] energy                      -79.674745563844
  CCSD-T energy                       -79.674264524371
 !CCSD(T) total energy                -79.674408678464

 Timing summary (sec):

 STEP                 CPU(USER)    SYS     CPU(TOT)    WALL
 Transformation          1.20      0.18      1.38      1.38
 CCSD iterations         6.94      0.59      7.53      7.48
 Triples                 6.86      0.17      7.03      7.04

 Program statistics:

 Available memory in ccsd:               499991989
 Min. memory needed in ccsd:               1437889
 Max. memory used in ccsd:                 1802974
 Max. memory used in cckext:               1340122 (11 integral passes)



 **********************************************************************************************************************************
 DATASETS  * FILE   NREC   LENGTH (MB)   RECORD NAMES
              1      21      100.35       500      610      700      900      701      950      970     1000      129      960   
                                          VAR    BASINP    GEOM    SYMINP    GEOM     ZMAT    AOBASIS   BASIS     P2S    ABASIS    
                                         1100     1400     1410     1200     1210     1080     1600     1650     1700     2100   
                                           S        T        V       H0       H01     AOSYM     SMH    MOLCAS    OPER      RHF  
                                         1380   
                                         JKOP   

              2       7        4.06       700     1000      520     2100     5600      701     5500   
                                         GEOM     BASIS   MCVARS     RHF     GINFO    GEOM     HINFO   

 PROGRAMS   *        TOTAL   CCSD(T)      OPTG   CCSD(T)       RHF       INT
 CPU TIMES  *      2382.26     15.02   1074.00     19.02      2.28      2.35
 REAL TIME  *      2638.22 SEC
 DISK USED  *         1.31 GB      
 SF USED    *       117.92 MB      
 GA USED    *         0.00 MB       (max)       0.00 MB       (current)
 **********************************************************************************************************************************
 Starting task  69.  CPU=  1392.20 sec, Elapsed=  1411.85 sec
 Incrementing variable HY3              by  0.010000 BOH   to    9.747666 BOH
 Incrementing variable HX3              by  0.010000 BOH   to  -13.003032 BOH


 Recomputing integrals since geometry changed


 PROGRAM * SEWARD (Integral evaluation for generally contracted gaussian basis sets)     Author: Roland Lindh, 1990

 Geometry written to block  1 of record 701


 Point group  C1  



 ATOMIC COORDINATES

 NR  ATOM    CHARGE       X              Y              Z

   1  C       6.00  -12.266987254    8.455176920   -2.676832900
   2  C       6.00   -9.377600155    8.455173813   -2.676830203
   3  H       1.00  -13.003031700    9.747665640   -4.110566274
   4  H       1.00  -13.013035482    9.055582683   -0.849300143
   5  H       1.00  -13.013036070    6.572284841   -3.070634376
   6  H       1.00   -8.631551330   10.338065874   -2.283028665
   7  H       1.00   -8.631551935    7.854768110   -4.504362984
   8  H       1.00   -8.631555710    7.172685044   -1.243096873

 Bond lengths in Bohr (Angstrom)

 1-2  2.889387099  1-3  2.065884775  1-4  2.063237993  1-5  2.063237994  2-6  2.063237993
     ( 1.528997806)     ( 1.093219143)     ( 1.091818527)     ( 1.091818527)     ( 1.091818527)

 2-7  2.063237994  2-8  2.063237993
     ( 1.091818527)     ( 1.091818527)

 Bond angles

  1-2-6  111.19790357   1-2-7  111.19790331   1-2-8  111.19790342   2-1-3  110.87232107

  2-1-4  111.19790356   2-1-5  111.19790329   3-1-4  107.68784064   3-1-5  108.03855624

  4-1-5  107.69070543   6-2-7  107.69070540   6-2-8  107.69070535   7-2-8  107.69070548

 NUCLEAR CHARGE:                   18
 NUMBER OF PRIMITIVE AOS:         196
 NUMBER OF SYMMETRY AOS:          180
 NUMBER OF CONTRACTIONS:          144   ( 144A   )
 NUMBER OF CORE ORBITALS:           2   (   2A   )
 NUMBER OF VALENCE ORBITALS:       14   (  14A   )


 NUCLEAR REPULSION ENERGY   42.22765727

 Eigenvalues of metric

         1 0.120E-02 0.130E-02 0.166E-02 0.167E-02 0.168E-02 0.169E-02 0.169E-02 0.342E-02


 Contracted 2-electron integrals neglected if value below      1.0D-12
 AO integral compression algorithm  1   Integral accuracy      1.0D-12

     285.213 MB (compressed) written to integral file ( 58.4%)

     Node minimum: 92.537 MB, node maximum: 99.615 MB


 NUMBER OF SORTED TWO-ELECTRON INTEGRALS:   18170820.     BUFFER LENGTH:  32768
 NUMBER OF SEGMENTS:   2  SEGMENT LENGTH:   15995235      RECORD LENGTH: 524288

 Memory used in sort:      16.55 MW

 SORT1 READ    61135278. AND WROTE    17915995. INTEGRALS IN     53 RECORDS. CPU TIME:     0.70 SEC, REAL TIME:     0.85 SEC
 SORT2 READ    53723405. AND WROTE    54502020. INTEGRALS IN   1065 RECORDS. CPU TIME:     0.27 SEC, REAL TIME:     0.42 SEC

 Node minimum:    18163860.  Node maximum:    18170820. integrals
