 **********************************************************************
                          MRCC program system
 **********************************************************************
 
                              Written by
  Mihaly Kallay, Zoltan Rolik, Jozsef Csontos, Peter Nagy, Gyula Samu,
      David Mester, Jozsef Csoka, Bernat Szabo, Istvan Ladjanszki,
       Lorant Szegedy, Bence Ladoczki, Klara Petrov, Mate Farkas,
                    Pal D. Mezei, and Bence Hegely
 
        Department of Physical Chemistry and Materials Science
            Budapest University of Technology and Economics
                  Budapest P.O.Box 91, H-1521 Hungary
 
                              www.mrcc.hu
 
                       Release date: May 23, 2018

 ************************ 2019-01-08 14:35:15 *************************
 Executing minp...

 Reading input from MINP...
 
 Input file:
 
basis=cc-pVQZ
scftype=RHF
calc=CCSD(T)
mem=30GB
scfiguess=sad
charge=0
mult=1
scfmaxit=300
scftol=7
cctol=7

geom=xyz
3
  
O       -3.3868544221      4.5682264827      0.0097586800                 
H       -2.3975280687      4.5287348594     -0.0068897592                 
H       -3.6762198590      3.6955688006     -0.3581266365  
 
 
 Checking keyword combinations...
 
 Keywords:
 
 active=none
 agrid=ld0006-ld0590
 basis=cc-pvqz
 basis_sm=none
 basopt=off
 bfbasis=none
 bpcompo=0.985
 bpcompv=0.98
 bpdfo=0.985
 bpocc=0.985
 bppdo=0.985
 bppdv=0.98
 bpedo=0.985
 bpedv=0.98
 calc=ccsd(t)
 ccmaxit=50
 ccprog=ccsd
 cctol=7
 charge=0
 cialg=auto
 ciguess=off
 cmpgrp=auto
 core=frozen
 corembed=off
 dboc=off
 dendec=cholesky
 dens=0
 dfalg=lineq
 dfbasis_cor=none
 dfbasis_scf=none
 dfintran=ovirt
 dft=off
 diag=david
 domrad=10.d0
 drpaalg=fit
 dual=off
 ecp=auto
 edisp=off
 embed=off
 epert=none
 eps=0.975
 excrad=0.d0
 excrad_fin=0.000000000D+00
 freq=off
 gauss=spher
 geom=xyz
 gopt=off
 ghost=none
 gtol=7
 grdens=off
 grtol=10
 hamilton=dc
 iface=none
 intalg=auto
 itol=11
 laptol=1.d-2
 lcorthr=loose
 lccrest=off
 lmp2dens=on
 lnoepso=0.d0
 lnoepsv=1e-6
 localcc=off
 localcorrsymm=off
 locintrf=disk
 maxact=off
 maxdim=100
 maxex=0
 mem=30gb
 molden=on
 mulmet=0
 mult=1
 nacto=0
 nactv=0
 naf_cor=off
 naf_scf=off
 nafalg=albe
 naftyp=
 nchol=auto
 ndeps=1e-3
 nstate=1
 nsing=0
 ntrip=0
 occ=
 optalg=
 optmaxit=50
 optetol=1e-6
 optgtol=1e-4
 optstol=1e-3
 orblocc=off
 orbloco=off
 orblocv=off
 orblocguess=cholesky
 osveps=1e-3
 ovirt=off
 ovltol=1e-7
 ovosnorb=80.0
 ptfreq=0.0
 popul=off
 pressure=100000
 qscf=off
 qmmm=off
 redcost_exc=off
 refdet=none
 rest=0
 rgrid=log3
 rohftype=semicanonical
 scfalg=auto
 scfdamp=off
 scfdiis=on
 scfdiis_end=300
 scfdiis_start=1
 scfdiis_step=1
 scfdtol=8
 scfext=10
 scfiguess=sad
 scflshift=off
 scfmaxit=300
 scftype=rhf
 scftol=7
 scspe=1.d0
 scsps=1.2d0
 scspt=0.33333333333333
 scspv=1.d0
 spairtol=1e-4
 symm=
 talg=occ
 temp=298.15
 test=off
 tprint=off
 uncontract=off
 unit=angs
 verbosity=2
 wpairtol=0.100000000E-05

 ************************ 2019-01-08 14:35:15 *************************
 Executing integ...

 Allocation of 30.0 Gbytes of memory...
 
 
 Number of atoms:              3
 Charge:                       0
 Number of electrons:         10
 Number of core electrons:     2
 Spin multiplicity:            1
 
                 Cartesian coordinates [bohr]      Atomic mass [AMU]  Z
   1  O    -6.40022728    8.63269693    0.01844123    15.994915       8
   2  H    -4.53067143    8.55806858   -0.01301976     1.007825       1
   3  H    -6.94704871    6.98361291   -0.67676126     1.007825       1
 
 This molecule is an asymmetric top.
 This molecule is planar.
 
 Rotational constants [cm-1]: 
     25.628328516071     13.640087475138      8.902132514819
 
 Point group: C2v 
 Computational point group: C2v 
 
 Cartesian coordinates in standard orientation [bohr]
   1  O     0.00000000   -0.00000000   -0.12820056
   2  H     0.00000000    1.47972486    1.01731794
   3  H     0.00000000   -1.47972486    1.01731794
 
 Nuclear repulsion energy [au]:          8.888064159772
 
 
 Basis set information:
 
 Maximum angular momentum: g
 Maximum number of contracted Gaussians:    5
 Maximum number of primitive Gaussians:    12
 Spherical harmonic GTOs are used.
 
    1  O  cc-pvqz [ 12s 6p 3d 2f 1g | 5s 4p 3d 2f 1g ]
    2  H  cc-pvqz [ 6s 3p 2d 1f | 4s 3p 2d 1f ]
    3  H  cc-pvqz [ 6s 3p 2d 1f | 4s 3p 2d 1f ]
 
 Total number of basis functions:    115
 
 
 Generating initial guess for the SCF calculation...
 CPU time [min]:     0.002                   Wall time [min]:     0.033
 
 Character table for point group C2v:
 
          E  C2  Qh  Qv  
    A1    1   1   1   1
    B1    1  -1   1  -1
    B2    1  -1  -1   1
    A2    1   1  -1  -1
 
 Number of basis functions per irrep:
    A1     42
    B1     33
    B2     23
    A2     17
 
 
 Calculation of overlap integrals...
 CPU time [min]:     0.002                   Wall time [min]:     0.033
 
 Calculation of the square root of the overlap matrix...
 Minimum eigenvalue of the overlap matrix: 0.265468E-03
 CPU time [min]:     0.003                   Wall time [min]:     0.034
 
 Calculation of kinetic energy integrals...
 CPU time [min]:     0.003                   Wall time [min]:     0.034
 Calculation of nuclear attraction integrals...
 CPU time [min]:     0.003                   Wall time [min]:     0.034
 
 Calculation of prescreening integrals...
 CPU time [min]:     0.007                   Wall time [min]:     0.035
 
 Calculation of two-electron integrals...
   1% done.
  12% done.
  30% done.
  53% done.
  78% done.
 100% done.
 CPU time [min]:     0.125                   Wall time [min]:     0.065

 ************************ 2019-01-08 14:35:19 *************************
 Executing scf...

 Allocation of 30.0 Gbytes of memory...
 ======================================================================
 ITERATION STEP   1
 CPU time [min]:     0.002                   Wall time [min]:     0.002
 
 ALPHA OCC:   3   1   1   0
 BETA  OCC:   3   1   1   0
 ***HARTREE-FOCK ENERGY IN STEP   1 IS     -75.7715100352653934 [AU]
 ======================================================================
 ITERATION STEP   2
 CPU time [min]:     0.017                   Wall time [min]:     0.006
 
 ALPHA OCC:   3   1   1   0
 BETA  OCC:   3   1   1   0
 ***HARTREE-FOCK ENERGY IN STEP   2 IS     -76.0470862588780108 [AU]
 ======================================================================
 ITERATION STEP   3
 CPU time [min]:     0.026                   Wall time [min]:     0.008
 
 ALPHA OCC:   3   1   1   0
 BETA  OCC:   3   1   1   0
 ***HARTREE-FOCK ENERGY IN STEP   3 IS     -76.0580643010353015 [AU]
 ======================================================================
 ITERATION STEP   4
 CPU time [min]:     0.036                   Wall time [min]:     0.011
 
 ALPHA OCC:   3   1   1   0
 BETA  OCC:   3   1   1   0
 ***HARTREE-FOCK ENERGY IN STEP   4 IS     -76.0601990479017189 [AU]
 ======================================================================
 ITERATION STEP   5
 CPU time [min]:     0.045                   Wall time [min]:     0.013
 
 ALPHA OCC:   3   1   1   0
 BETA  OCC:   3   1   1   0
 ***HARTREE-FOCK ENERGY IN STEP   5 IS     -76.0604803453746285 [AU]
 ======================================================================
 ITERATION STEP   6
 CPU time [min]:     0.055                   Wall time [min]:     0.015
 
 ALPHA OCC:   3   1   1   0
 BETA  OCC:   3   1   1   0
 ***HARTREE-FOCK ENERGY IN STEP   6 IS     -76.0604897303235674 [AU]
 ======================================================================
 ITERATION STEP   7
 CPU time [min]:     0.065                   Wall time [min]:     0.018
 
 ALPHA OCC:   3   1   1   0
 BETA  OCC:   3   1   1   0
 ***HARTREE-FOCK ENERGY IN STEP   7 IS     -76.0604899013256670 [AU]
 ======================================================================
 ITERATION STEP   8
 CPU time [min]:     0.074                   Wall time [min]:     0.020
 
 ALPHA OCC:   3   1   1   0
 BETA  OCC:   3   1   1   0
 ***HARTREE-FOCK ENERGY IN STEP   8 IS     -76.0604899113802730 [AU]
 ======================================================================
 ITERATION STEP   9
 CPU time [min]:     0.084                   Wall time [min]:     0.023
 
 ALPHA OCC:   3   1   1   0
 BETA  OCC:   3   1   1   0
 ***HARTREE-FOCK ENERGY IN STEP   9 IS     -76.0604899116773083 [AU]
 ======================================================================
 ITERATION STEP  10
 CPU time [min]:     0.093                   Wall time [min]:     0.025
 
 ALPHA OCC:   3   1   1   0
 BETA  OCC:   3   1   1   0
 ***HARTREE-FOCK ENERGY IN STEP  10 IS     -76.0604899116825806 [AU]
 ======================================================================
 ITERATION STEP  11
 CPU time [min]:     0.103                   Wall time [min]:     0.027
 
 ALPHA OCC:   3   1   1   0
 BETA  OCC:   3   1   1   0
 ***HARTREE-FOCK ENERGY IN STEP  11 IS     -76.0604899116827227 [AU]
 ======================================================================
 
 SUCCESS...
 THE SCF ITERATION HAS CONVERGED!
 
                   A1  B1  B2  A2  
 FINAL ALPHA OCC:   3   1   1   0
 FINAL BETA  OCC:   3   1   1   0
 
 ***FINAL HARTREE-FOCK ENERGY:    -76.0604899116827227 [AU]
 
 RETURNING FROM SCF ALGORITHM
 ======================================================================

 ************************ 2019-01-08 14:35:21 *************************
 Executing ovirt...

 ovirt, the routine of orbital optimization and integral transformation 
Tue Jan  8 14:35:21 CST 2019
 Allocated memory:                   30720  Mb
 RHF calculation! 
 integral transforamtion: AOs ------ MOs
 # of basis functions, # of int. blocks   115     1
100 % 
 second part
100 %
 integral transformation is completed! 
CPU and WC time          21.13           8.86     AOs -> MOs 
 printing integral list for the ccsd calculations
Tue Jan  8 14:35:34 CST 2019
  ovirt terminated normally 

 ************************ 2019-01-08 14:35:34 *************************
 Executing ccsd...

 CCSD(T) calculation
 
 Convergence criterion:  1.0E-07
 
 Allocation of 30.0 Gbytes of memory...
 
 Reference energy [au]:       -76.060489911683
 MP2 energy [au]:             -76.345695474930
 
 
 Starting CCSD iterations...
 
                     Residual norm          Energy
 Iteration  1        0.177797180388      -76.342158737623
 Iteration  2        0.038419078836      -76.347537927477
 Iteration  3        0.012895745767      -76.348597793054
 Iteration  4        0.002491400129      -76.348549755749
 Iteration  5        0.000818225490      -76.348577685409
 Iteration  6        0.000184725869      -76.348581700773
 Iteration  7        0.000050446065      -76.348581628155
 Iteration  8        0.000018265515      -76.348581384288
 Iteration  9        0.000004642978      -76.348581270743
 Iteration 10        0.000001124718      -76.348581248982
 Iteration 11        0.000000268345      -76.348581260459
 
 CCSD iteration has converged in 11 steps.
 
 T1 diagnostic:      7.814E-03            D1 diagnostic:      1.399E-02
 
 CCSD correlation energy [au]:          -0.288091348776
 Total CCSD energy [au]:               -76.348581260459
 
 CPU time [min]:     0.375                   Wall time [min]:     0.094
 
 Calculation of (T) correction...
   1% done.
  56% done.
  88% done.
 100% done.
 
 (T) correction [au]:                   -0.009313846773
 CCSD(T) correlation energy [au]:       -0.297405195549
 CCSD(T) total energy [au]:            -76.357895107232
 
 CPU time [min]:     0.408                   Wall time [min]:     0.102
 
 ************************ 2019-01-08 14:35:40 *************************
                      Normal termination of mrcc.
 **********************************************************************
