
 Primary working directories    : /scratch/kmoore
 Secondary working directories  : /scratch/kmoore
 Wavefunction directory         : /scratch/kmoore/
 Main file repository           : /scratch/kmoore/

 SHA1      : b6b3a4772808bb2d43777f23454e145ddfe12dc3
 NAME      : 2015.1.1
 ARCHNAME  : linux/x86_64
 FC        : /soft/mvapich2/2.2b_psm/intel-15.0/bin/mpif90
 BLASLIB   : -L/soft/intel/15.0.1/composer_xe_2015.0.090/mkl/lib/intel64 -lmkl_intel_ilp64 -lmkl_sequential -lmkl_core
 id        : anlgov

 Nodes     nprocs
 b450         3
 Number of processes for MPI-2 version of Molpro:   nprocs(total)=    4   nprocs(compute)=    3   nprocs(helper)=    1

 Using customized tuning parameters: mindgm=1; mindgv=20; mindgc=4; mindgr=1; noblas=0; minvec=7
 default implementation of scratch files=sf  

 memory,500,m
 
 angstrom
 Geometry = {
 O          1.02678       -0.07839        0.03182
 H          0.74793       -0.99954       -0.08083
 H          1.99466       -0.12448        0.02618
 }
 
 basis=sto-3g
 
 {rhf
  wf,10,1,0,0}
 

 Variables initialized (889), CPU time= 0.01 sec
 Commands  initialized (702), CPU time= 0.00 sec, 572 directives.
 Default parameters read. Elapsed time= 0.18 sec

 Checking input...
 Passed
1


                                         ***  PROGRAM SYSTEM MOLPRO  ***
                                       Copyright, TTI GmbH Stuttgart, 2015
                                    Version 2015.1 linked Jan  8 2016 07:59:11


 **********************************************************************************************************************************
 LABEL *                                                                                 
  64 bit mpp version                                                                     DATE: 16-Nov-18          TIME: 14:28:14  
 **********************************************************************************************************************************

 SHA1:             b6b3a4772808bb2d43777f23454e145ddfe12dc3
 **********************************************************************************************************************************
 ZUNIT=ANG
 

Geometry recognized as XYZ


 Variable memory set to  500000000 words,  buffer space   230000 words

 SETTING BASIS          =    STO-3G


 Recomputing integrals since basis changed


 Using spherical harmonics

 Library entry O      S STO-3G               selected for orbital group  1
 Library entry O      P STO-3G               selected for orbital group  1
 Library entry H      S STO-3G               selected for orbital group  2

1PROGRAM * SEWARD (Integral evaluation for generally contracted gaussian basis sets)     Author: Roland Lindh, 1990

 Geometry written to block  1 of record 700


 Point group  C1  



 ATOMIC COORDINATES

 NR  ATOM    CHARGE       X              Y              Z

   1  O       8.00    1.940332990   -0.148135631    0.060131085
   2  H       1.00    1.413382860   -1.888856851   -0.152746563
   3  H       1.00    3.769361112   -0.235233108    0.049473030

 Bond lengths in Bohr (Angstrom)

 1-2  1.831148191  1-3  1.831131736
     ( 0.969001892)     ( 0.968993185)

 Bond angles

  2-1-3  103.97787160

 NUCLEAR CHARGE:                   10
 NUMBER OF PRIMITIVE AOS:          21
 NUMBER OF SYMMETRY AOS:           21
 NUMBER OF CONTRACTIONS:            7   (   7A   )
 NUMBER OF CORE ORBITALS:           1   (   1A   )
 NUMBER OF VALENCE ORBITALS:        6   (   6A   )


 NUCLEAR REPULSION ENERGY    9.08428913

 Eigenvalues of metric

         1 0.350E+00 0.425E+00 0.885E+00 0.100E+01 0.109E+01 0.133E+01 0.192E+01


 Contracted 2-electron integrals neglected if value below      1.0D-11
 AO integral compression algorithm  1   Integral accuracy      1.0D-11

     0.786 MB (compressed) written to integral file (100.0%)

     Node minimum: 0.262 MB, node maximum: 0.262 MB


 NUMBER OF SORTED TWO-ELECTRON INTEGRALS:        135.     BUFFER LENGTH:  32768
 NUMBER OF SEGMENTS:   1  SEGMENT LENGTH:        135      RECORD LENGTH: 524288

 Memory used in sort:       0.56 MW

 SORT1 READ         543. AND WROTE         106. INTEGRALS IN      1 RECORDS. CPU TIME:     0.00 SEC, REAL TIME:     0.00 SEC
 SORT2 READ         319. AND WROTE         406. INTEGRALS IN      3 RECORDS. CPU TIME:     0.00 SEC, REAL TIME:     0.00 SEC

 Node minimum:         126.  Node maximum:         145. integrals

 OPERATOR DM      FOR CENTER  0  COORDINATES:    0.000000    0.000000    0.000000


 **********************************************************************************************************************************
 DATASETS  * FILE   NREC   LENGTH (MB)   RECORD NAMES
              1      18       19.09       500      610      700      900      950      970     1000      129      960     1100   
                                          VAR    BASINP    GEOM    SYMINP    ZMAT    AOBASIS   BASIS     P2S    ABASIS      S 
                                         1400     1410     1200     1210     1080     1600     1650     1700   
                                           T        V       H0       H01     AOSYM     SMH    MOLCAS    OPER   

 PROGRAMS   *        TOTAL       INT
 CPU TIMES  *         0.29      0.17
 REAL TIME  *         2.38 SEC
 DISK USED  *        12.59 MB      
 GA USED    *         0.00 MB       (max)       0.00 MB       (current)
 **********************************************************************************************************************************

1PROGRAM * RHF-SCF (CLOSED SHELL)       Authors: W. Meyer, H.-J. Werner


 NUMBER OF ELECTRONS:       5+    5-    SPACE SYMMETRY=1    SPIN SYMMETRY: Singlet 
 CONVERGENCE THRESHOLDS:    1.00E-05 (Density)    1.00E-07 (Energy)
 MAX. NUMBER OF ITERATIONS:       60
 INTERPOLATION TYPE:            DIIS
 INTERPOLATION STEPS:              2 (START)      1 (STEP)
 LEVEL SHIFTS:                  0.00 (CLOSED)  0.00 (OPEN) 



 Orbital guess generated from atomic densities. Full valence occupancy:    5

 Molecular orbital dump at record        2100.2

 Initial occupancy:   5

 ITERATION    DDIFF          GRAD             ENERGY        2-EL.EN.            DIPOLE MOMENTS         DIIS   ORB.
    1      0.000D+00      0.000D+00       -74.87107626     79.669388    0.72994   -1.02467   -0.12531    0    start
    2      0.000D+00      0.791D-01       -74.96363202     76.002659    0.37578   -0.52749   -0.06451    1    diag
    3      0.134D+00      0.848D-02       -74.96441857     76.253667    0.39256   -0.55106   -0.06739    2    diag
    4      0.936D-02      0.138D-02       -74.96444870     76.250796    0.38936   -0.54657   -0.06684    3    diag
    5      0.291D-02      0.880D-04       -74.96444892     76.251131    0.38930   -0.54648   -0.06683    4    diag
    6      0.232D-03      0.192D-04       -74.96444893     76.250839    0.38926   -0.54642   -0.06682    5    diag
    7      0.666D-04      0.825D-06       -74.96444893     76.250871    0.38926   -0.54642   -0.06683    6    diag
    8      0.224D-05      0.385D-09       -74.96444893     76.250871    0.38926   -0.54642   -0.06683    0    orth

 Final occupancy:   5

 !RHF STATE 1.1 Energy                -74.964448931864
 Nuclear energy                         9.08428913
 One-electron energy                 -122.17417379
 Two-electron energy                   38.12543573
 Virial quotient                       -1.00540124
 !RHF STATE 1.1 Dipole moment           0.38926006    -0.54642193    -0.06682545
 Dipole moment /Debye                   0.98933559    -1.38877505    -0.16984223

 Orbital energies:

         1.1          2.1          3.1          4.1          5.1          6.1          7.1
    -20.243918    -1.263084    -0.610866    -0.452873    -0.390909     0.594964     0.726924

 HOMO      5.1    -0.390909 =     -10.6372eV
 LUMO      6.1     0.594964 =      16.1898eV
 LUMO-HOMO         0.985873 =      26.8270eV


 **********************************************************************************************************************************
 DATASETS  * FILE   NREC   LENGTH (MB)   RECORD NAMES
              1      18       19.09       500      610      700      900      950      970     1000      129      960     1100   
                                          VAR    BASINP    GEOM    SYMINP    ZMAT    AOBASIS   BASIS     P2S    ABASIS      S 
                                         1400     1410     1200     1210     1080     1600     1650     1700   
                                           T        V       H0       H01     AOSYM     SMH    MOLCAS    OPER   

              2       4        0.40       700     1000      520     2100   
                                         GEOM     BASIS   MCVARS     RHF  

 PROGRAMS   *        TOTAL       RHF       INT
 CPU TIMES  *         0.33      0.04      0.17
 REAL TIME  *         3.56 SEC
 DISK USED  *        71.16 MB      
 SF USED    *         0.00 MB      
 GA USED    *         0.00 MB       (max)       0.00 MB       (current)
 **********************************************************************************************************************************

 RHF/STO-3G energy=    -74.964448931864

        RHF-SCF 
    -74.96444893
 **********************************************************************************************************************************
 Variable memory released
