
    -----------------------------------------------------------------------
          Psi4: An Open-Source Ab Initio Electronic Structure Package
                               Psi4 1.2.1 release

                         Git: Rev {HEAD} 406f4de 


    R. M. Parrish, L. A. Burns, D. G. A. Smith, A. C. Simmonett,
    A. E. DePrince III, E. G. Hohenstein, U. Bozkaya, A. Yu. Sokolov,
    R. Di Remigio, R. M. Richard, J. F. Gonthier, A. M. James,
    H. R. McAlexander, A. Kumar, M. Saitow, X. Wang, B. P. Pritchard,
    P. Verma, H. F. Schaefer III, K. Patkowski, R. A. King, E. F. Valeev,
    F. A. Evangelista, J. M. Turney, T. D. Crawford, and C. D. Sherrill,
    J. Chem. Theory Comput. 13(7) pp 3185--3197 (2017).
    (doi: 10.1021/acs.jctc.7b00174)


                         Additional Contributions by
    P. Kraus, H. Kruse, M. H. Lechner, M. C. Schieber, and R. A. Shaw

    -----------------------------------------------------------------------


    Psi4 started on: Friday, 16 November 2018 02:24PM

    Process ID: 107273
    Host:       blogin4
    PSIDATADIR: /home/copan/miniconda/envs/esenv/share/psi4
    Memory:     500.0 MiB
    Threads:    1
    
  ==> Input File <==

--------------------------------------------------------------------------
molecule{
0 1
O          1.02678       -0.07839        0.03182
H          0.74793       -0.99954       -0.08083
H          1.99466       -0.12448        0.02618
units angstrom
}

set basis sto-3g
energy('scf')
--------------------------------------------------------------------------

*** tstart() called on blogin4
*** at Fri Nov 16 14:24:31 2018

   => Loading Basis Set <=

    Name: STO-3G
    Role: ORBITAL
    Keyword: BASIS
    atoms 1   entry O          line    81 file /home/copan/miniconda/envs/esenv/share/psi4/basis/sto-3g.gbs 
    atoms 2-3 entry H          line    19 file /home/copan/miniconda/envs/esenv/share/psi4/basis/sto-3g.gbs 


         ---------------------------------------------------------
                                   SCF
            by Justin Turney, Rob Parrish, Andy Simmonett
                             and Daniel Smith
                              RHF Reference
                        1 Threads,    500 MiB Core
         ---------------------------------------------------------

  ==> Geometry <==

    Molecular point group: cs
    Full point group: Cs

    Geometry (in Angstrom), charge = 0, multiplicity = 1:

       Center              X                  Y                   Z               Mass       
    ------------   -----------------  -----------------  -----------------  -----------------
         O            0.054527521398     0.038556352566     0.000000000000    15.994914619560
         H           -0.873485056642     0.317406352567     0.000000000000     1.007825032070
         H            0.008093722414    -0.929323647440     0.000000000000     1.007825032070

  Running in cs symmetry.

  Rotational constants: A =     26.44739  B =     14.34838  C =      9.30188 [cm^-1]
  Rotational constants: A = 792872.79237  B = 430153.53337  C = 278863.19858 [MHz]
  Nuclear repulsion =    9.084289089639080

  Charge       = 0
  Multiplicity = 1
  Electrons    = 10
  Nalpha       = 5
  Nbeta        = 5

  ==> Algorithm <==

  SCF Algorithm Type is DF.
  DIIS enabled.
  MOM disabled.
  Fractional occupation disabled.
  Guess Type is SAD.
  Energy threshold   = 1.00e-06
  Density threshold  = 1.00e-06
  Integral threshold = 0.00e+00

  ==> Primary Basis <==

  Basis Set: STO-3G
    Blend: STO-3G
    Number of shells: 5
    Number of basis function: 7
    Number of Cartesian functions: 7
    Spherical Harmonics?: true
    Max angular momentum: 1

   => Loading Basis Set <=

    Name: (STO-3G AUX)
    Role: JKFIT
    Keyword: DF_BASIS_SCF
    atoms 1   entry O          line   323 file /home/copan/miniconda/envs/esenv/share/psi4/basis/def2-svp-jkfit.gbs 
    atoms 2-3 entry H          line    23 file /home/copan/miniconda/envs/esenv/share/psi4/basis/def2-svp-jkfit.gbs 

  ==> Pre-Iterations <==

   -------------------------------------------------------
    Irrep   Nso     Nmo     Nalpha   Nbeta   Ndocc  Nsocc
   -------------------------------------------------------
     A'         6       6       0       0       0       0
     A"         1       1       0       0       0       0
   -------------------------------------------------------
    Total       7       7       5       5       5       0
   -------------------------------------------------------

  ==> Integral Setup <==

  DFHelper Memory: AOs need 0.000 [GiB]; user supplied 0.366 [GiB]. Using in-core AOs.

  ==> MemDFJK: Density-Fitted J/K Matrices <==

    J tasked:                   Yes
    K tasked:                   Yes
    wK tasked:                   No
    OpenMP threads:               1
    Memory (MB):                375
    Algorithm:                 Core
    Schwarz Cutoff:           1E-12
    Mask sparsity (%):       0.0000
    Fitting Condition:        1E-12

   => Auxiliary Basis Set <=

  Basis Set: (STO-3G AUX)
    Blend: DEF2-SVP-JKFIT
    Number of shells: 37
    Number of basis function: 113
    Number of Cartesian functions: 133
    Spherical Harmonics?: true
    Max angular momentum: 4

  Minimum eigenvalue in the overlap matrix is 3.4991988074E-01.
  Using Symmetric Orthogonalization.

  SCF Guess: Superposition of Atomic Densities via on-the-fly atomic UHF.

  ==> Iterations <==

                           Total Energy        Delta E     RMS |[F,P]|

   @DF-RHF iter   0:   -74.75060816081282   -7.47506e+01   2.41149e-01 
   @DF-RHF iter   1:   -74.91084731797592   -1.60239e-01   4.14916e-02 
   @DF-RHF iter   2:   -74.96295707997608   -5.21098e-02   6.77404e-03 DIIS
   @DF-RHF iter   3:   -74.96437397813425   -1.41690e-03   1.92145e-03 DIIS
   @DF-RHF iter   4:   -74.96453402499225   -1.60047e-04   2.12310e-04 DIIS
   @DF-RHF iter   5:   -74.96453634235721   -2.31736e-06   2.66976e-05 DIIS
   @DF-RHF iter   6:   -74.96453638019901   -3.78418e-08   5.26728e-06 DIIS
   @DF-RHF iter   7:   -74.96453638122082   -1.02182e-09   6.81932e-07 DIIS

  ==> Post-Iterations <==

    Orbital Energies [Eh]
    ---------------------

    Doubly Occupied:                                                      

       1Ap   -20.244137     2Ap    -1.263100     3Ap    -0.610865  
       4Ap    -0.452873     1App   -0.390908  

    Virtual:                                                              

       5Ap     0.594994     6Ap     0.726969  

    Final Occupation by Irrep:
             Ap   App 
    DOCC [     4,    1 ]

  Energy converged.

  @DF-RHF Final Energy:   -74.96453638122082

   => Energetics <=

    Nuclear Repulsion Energy =              9.0842890896390802
    One-Electron Energy =                -122.1738953480929410
    Two-Electron Energy =                  38.1250698772330310
    Total Energy =                        -74.9645363812208245



Properties will be evaluated at   0.000000,   0.000000,   0.000000 [a0]

Properties computed using the SCF density matrix

  Nuclear Dipole Moment: [e a0]
     X:    -0.8110      Y:    -0.5735      Z:     0.0000

  Electronic Dipole Moment: [e a0]
     X:     0.2606      Y:     0.1843      Z:     0.0000

  Dipole Moment: [e a0]
     X:    -0.5504      Y:    -0.3892      Z:     0.0000     Total:     0.6741

  Dipole Moment: [D]
     X:    -1.3990      Y:    -0.9892      Z:     0.0000     Total:     1.7134


*** tstop() called on blogin4 at Fri Nov 16 14:24:31 2018
Module time:
	user time   =       0.45 seconds =       0.01 minutes
	system time =       0.01 seconds =       0.00 minutes
	total time  =          0 seconds =       0.00 minutes
Total time:
	user time   =       0.45 seconds =       0.01 minutes
	system time =       0.01 seconds =       0.00 minutes
	total time  =          0 seconds =       0.00 minutes

    Psi4 stopped on: Friday, 16 November 2018 02:24PM
    Psi4 wall time for execution: 0:00:00.50

*** Psi4 exiting successfully. Buy a developer a beer!
