 --invoking executable--
/lcrc/project/PACC/brossdh/cfour_blues/bin/xinitenv
--executable xinitenv finished with status     0 in       24.58 seconds (walltime).
 --invoking executable--
/lcrc/project/PACC/brossdh/cfour_blues/bin/xjoda


   *************************************************************************
         <<<     CCCCCC     CCCCCC   |||     CCCCCC     CCCCCC   >>>
       <<<      CCC        CCC       |||    CCC        CCC         >>>
      <<<      CCC        CCC        |||   CCC        CCC            >>>
    <<<        CCC        CCC        |||   CCC        CCC              >>>
      <<<      CCC        CCC        |||   CCC        CCC            >>>
       <<<      CCC        CCC       |||    CCC        CCC         >>>
         <<<     CCCCCC     CCCCCC   |||     CCCCCC     CCCCCC   >>>
   *************************************************************************

     ****************************************************************
     * CFOUR Coupled-Cluster techniques for Computational Chemistry *
     ****************************************************************
 

   Department of Chemistry                Institut fuer Physikalische Chemie
   University of Texas at Austin          Universitaet Mainz
   Austin, TX  78712, USA                 D-55099 Mainz, Germany
 
                       Version 2.00beta
 
                     b451                                              
                     Thu Dec 13 09:59:48 CST 2018                      
                     integer*8 version is running
 
********************************************************************************
*                          Input from ZMAT file                                *
********************************************************************************
SP Test                                                                         
O                                                                               
H 1 r1*                                                                         
H 1 r1* 2 a1*                                                                   
                                                                                
r1 = 0.95                                                                       
a1 = 104.5                                                                      
                                                                                
*CFOUR(CALC=CCSD[T]                                                             
CC_PROG=ECC,ABCDTYPE=AOBASIS                                                    
REFERENCE=RHF                                                                   
BASIS=PVDZ                                                                      
MEMORY_SIZE=30,MEM_UNIT=GB                                                      
CHARGE=0,MULTIPLICITY=1)                                                        
                                                                                
********************************************************************************
 
     PARALLEL RUN STARTED ON            4  CORES/NODES.
 
    -------------------------------------------------------------------
                    CFOUR Control Parameters 
    -------------------------------------------------------------------
        External           Internal           Value            Units
          Name               Name
    -------------------------------------------------------------------
       ABCDTYPE             IABCDT         AOBASIS      [  2]   ***   
       ANHARMONIC           IANHAR         OFF          [  0]   ***   
       ANH_ALGORIT          IANALG         STANDARD     [  0]   ***   
       ANH_DERIVAT          IANDER         SECOND       [  1]   ***   
       ANH_STEPSIZ          ICUBST             50000          x 10-6  
       ANH_SYMMETR          IANHSM         ABELIAN      [  0]   ***   
       AO_LADDERS           IAOLAD         SINGLEPASS   [  1]   ***   
       BASIS                IBASIS         PVDZ         [ 13]   ***   
       BREIT                IBREIT         OFF          [  0]   ***   
       BRUCK_CONV           IBRTOL          10D-  4             ***   
       BRUECKNER            IBRKNR             OFF      [  0]   ***   
       BUFFERSIZE           IBUFFS            600               ***   
       CACHE_RECS           ICHREC             10               ***   
       CALCLEVEL            ICLLVL           CCSD(T)    [ 22]   ***   
       CCORBOPT             ICCORB             OFF      [  0] x 0.01  
       CC_CONV              ICCCNV          10D-  7             ***   
       CC_EXPORDER          ICCEOR              5               ***   
       CC_EXTRAPOL          ICCEXT             DIIS     [  1]   ***   
       CC_MAXCYC            ICCCYC             50              cycles 
       CC_PROGRAM           ICCPRO         ECC          [  1]   ***   
       CHARGE               ICHRGE              0               ***   
       CHOLESKY             ICHOLE         OFF          [  0]   ***   
       CIS_CONV             ICISTL              5               ***   
       COMM_SIZE            IPSIZE            ***               ***   
       CONSTANT             ICONST         OLD          [  1]   ***   
       CONTINUUM            ICONTU         NONE         [  0]   ***   
       CONTRACTION          ICNTYP          GENERAL     [  1]   ***   
       COORDINATES          ICOORD         INTERNAL     [  0]   ***   
       CPHF_CONVER          ICPHFT          10D- 16             ***   
       CPHF_MAXCYC          ICPHFC             64              cycles 
       CUBIC                ICUBIC         OFF          [  0]   ***   
       CURVILINEAR          ICURVY            OFF       [  0]   ***   
       DBOC                 IDBOC          OFF          [  0]   ***   
       DCT                  IDCT           OFF          [  0]   ***   
       DERIV_LEV            IDRLVL            FIRST     [  1]   ***   
       DIAG_MRCC            IEOMST          10D-  0             ***   
       DIFF_TYPE            IDIFTY         RELAXED      [  0]   ***   
       DIRECT               IDIRCT         OFF          [  0]   ***   
       DROPMO               IDRPMO      NONE         
       ECP                  IECP           OFF          [  0]   ***   
       EIGENVECTOR          IVEC                1               ***   
       EL_ANHARM            IELANH         OFF          [  0]   ***   
       EOMFOLLOW            IEOMSR         ENERGY       [  0]   ***   
       EOM_MRCC             IMRCCE         NEW          [  1]   ***   
       EOM_NONIT            EOMNON         OFF          [  0]   ***   
       EOM_NSING            IEOMSI          10D-  0             ***   
       EOM_NSTATES          IMRCCD         DAVIDSON     [  0]   ***   
       EOM_NTRIP            IEOMTR          10D-  0             ***   
       EOM_ORDER            IEXORD         ENERGY       [  0]   ***   
       ESTATE_CONV          IEXTOL          10D-  5             ***   
       ESTATE_DIAG          IEXDIG         ITERATIVE    [  0]   ***   
       ESTATE_LOCK          IESLOC         ON           [  1]   ***   
       ESTATE_MAXC          IEXMXC             20               ***   
       ESTATE_PROP          IEXPRP         OFF          [  0]   ***   
       EVAL_HESS            IRECAL              0            # of cyc.
       EXCITATION           IEXCIT              0               ***   
       EXCITE               IEXCIT         NONE         [  0]   ***   
       FCGRADNEW            IFCGNW         OFF          [  0]   ***   
       FC_FIELD             IFINFC              0             x 10-6  
       FD_CALTYPE           IFDCAL         GRADONLY     [  0]   ***   
       FD_PROJECT           IFDPRJ         OFF          [  1]   ***   
       FD_STEPSIZE          IDISFD              0            10-4 bohr
       FD_USEGROUP          IFDGRP         FULL         [  0]   ***   
       FILE_RECSIZ          IFLREC              4096           words  
       FINITE_PERT          IFIPER              0             x 10-6  
       FIXGEOM              IFIXGM         OFF          [  0]   ***   
       FOCK                 IFOCK          AO           [  1]   ***   
       FREQ_ALGORI          IVIALG         STANDARD     [  0]   ***   
       FROZEN_CORE          IFROCO         OFF          [  0]   ***   
       FROZEN_VIRT          IFROVI         OFF          [  0]   ***   
       GAMMA_ABCD           IGABCD         DIRECT       [  1]   ***   
       GAMMA_ABCI           IGABCI         STORE        [  0]   ***   
       GENBAS_1             IGNBS1              0               ***   
       GENBAS_2             IGNBS2              0               ***   
       GENBAS_3             IGNBS3              0               ***   
       GENBAS_4             IGNBS4              0               ***   
       GEO_CONV             ICONTL              5              H/bohr 
       GEO_MAXCYC           IOPTCY             50               ***   
       GEO_MAXSTEP          IMXSTP            300            millibohr
       GEO_METHOD           INR                NR       [  0]   ***   
       GIAO                 IGIAO          OFF          [  1]   ***   
       GIMIC                IGIMIC         OFF          [  0]   ***   
       GRID                 IGRID          OFF          [  0]   ***   
       GRID_ALGO            IGALGO         SERIAL       [  0]   ***   
       GUESS                IGUESS            MOREAD    [  0]   ***   
       HBAR                 IHBAR              OFF      [  0]   ***   
       HESS_TYPE            IHESTP         SCF          [  0]   ***   
       HF2_FILE             IHF2Fl         USE          [  1]   ***   
       HFSTABILITY          ISTABL         OFF          [  0]   ***   
       INCORE               INCORE             OFF      [  0]   ***   
       INPUT_MRCC           IMRCC          ON           [  1]   ***   
       INTEGRALS            INTTYP             VMOL     [  1]   ***   
       JODA_PRINT           IJPRNT              0               ***   
       LINDEP_TOL           ILINDP              8               ***   
       LINEQ_CONV           IZTACN          10D-  7           cycles  
       LINEQ_EXPOR          ILMAXD              5               ***   
       LINEQ_MAXCY          ILMAXC             50               ***   
       LINEQ_TYPE           ILTYPE         DIIS         [  1]   ***   
       LOCK_ORBOCC          ILOCOC             OFF      [  0]   ***   
       MEMORY_SIZE          IMEMSZ         *********           words  
       MEM_UNIT             IMEMU          GB           [  3]   ***   
       MRCC                 IMRCCC         OFF          [  0]   ***   
       MULTIPLICTY          IMULTP              1               ***   
       NEGEVAL              IDIE             ABORT      [  0]   ***   
       NEWNORM              INEWNO         OFF          [  0]   ***   
       NON-HF               INONHF             OFF      [  0]   ***   
       NTOP_TAMP            ITOPT2             15               ***   
       NUC_MODEL            INUCMO         POINT        [  0]   ***   
       OCCUPATION           IOCCU   ESTIMATED BY SCF 
       OPEN-SHELL           IOPEN          SPIN-ORBITAL [  0]   ***   
       ORBITALS             IORBTP           STANDARD   [  0]   ***   
       PARALLEL             IPARAL         ON           [  1]   ***   
       PARA_INT             IPINTS         ON           [  1]   ***   
       PARA_PRINT           IPPRIN              0               ***   
       PERT_ORB             IPTORB         CANONICAL    [  1]   ***   
       POINTS               IGRDFD              0               ***   
       PRINT                IPRNT               0               ***   
       PROPS                IPROPS             OFF      [  0]   ***   
       PROP_INTEGR          IINTYP         INTERNAL     [  0]   ***   
       PSI                  IPSI           OFF          [  0]   ***   
       QUARTIC              IQUART         OFF          [  0]   ***   
       RAMAN_INT            IRAMIN         OFF          [  0]   ***   
       RAMAN_ORB            IRAMRE         UNRELAXED    [  0]   ***   
       RDO                  IRDOFM              ON      [  1]   ***   
       REFERENCE            IREFNC             RHF      [  0]   ***   
       RELATIVIST           IRELAT         OFF          [  0]   ***   
       RELAX_DENS           IRDENS              ON      [  1]   ***   
       RESET_FLAGS          IRESET             OFF      [  0]   ***   
       RESTART_CC           ICCRES         OFF          [  0]   ***   
       ROT_EVEC             ROTVEC              0               ***   
       SAVE_INTS            ISVINT             OFF      [  0]   ***   
       SCALE_ON             ISTCRT              0               ***   
       SCF_CONV             ISCFCV          10D-  7             ***   
       SCF_DAMPING          IDAMP               0             x 10-3  
       SCF_EXPORDE          IRPPOR              6               ***   
       SCF_EXPSTAR          IRPPLS              8               ***   
       SCF_EXTRAPO          IRPP                ON      [  1]   ***   
       SCF_MAXCYC           ISCFCY            150              cycles 
       SCF_NOSTOP           ISCFST         OFF          [  0]   ***   
       SCF_PRINT            ISCFPR              0               ***   
       SD_FIELD             IFINSD              0             x 10-6  
       SEQUENCE             ISEQUE         OFF          [  0]   ***   
       SOPERT               IPERSO         OFF          [  0]   ***   
       SPHERICAL            IDFGHI             ON       [  1]   ***   
       SPINORBIT            ISOCAL         OFF          [  0]   ***   
       SPINROTATIO          ISRCON         OFF          [  0]   ***   
       SPIN_FLIP            ISPFLP         OFF          [  0]   ***   
       SPIN_ORBIT           ISPORB         OFF          [  0]   ***   
       SPIN_SCAL            ISCSMP         OFF          [  0]   ***   
       SUBGROUP             ISUBGP         DEFAULT      [  0]   ***   
       SUBGRPAXIS           ISBXYZ         X            [  0]   ***   
       SYMMETRY             ISYM             ON         [  0]   ***   
       SYM_CHECK            ISYMCK         OVERRIDE     [  1]   ***   
       T3_EXTRAPOL          IT3EXT         OFF          [  0]   ***   
       TAMP_SUM             IEVERY              5               ***   
       TESTSUITE            ITESTS         OFF          [  0]   ***   
       THERMOCH             ITHERM         OFF          [  0]   ***   
       TOL_CHOLESK          ITOLCH          10D-  4             ***   
       TRANGRAD             IRESRM         OFF          [  0]   ***   
       TRANS_INV            ITRAIN         USE          [  0]   ***   
       TREAT_PERT           ITREAT         SIMULTANEOUS [  0]   ***   
       UIJ_THRESHO          IUIJTH              1               ***   
       UNITS                IUNITS         ANGSTROM     [  0]   ***   
       UNOS                 IUNOS          OFF          [  0]   ***   
       UPDATE_HESS          IHUPDT         ON           [  1]   ***   
       VIBPHASE             ISETPH         STANDARD     [  0]   ***   
       VIBRATION            IVIB              NO        [  0]   ***   
       VIB_ALGORIT          IGEALG         STANDARD     [  0]   ***   
       VNATORB              IVNORB         OFF          [  0]   ***   
       VTRAN                IVTRAN         PARTIAL      [  2]   ***   
       XFIELD               IXEFLD              0             x 10-6  
       XFORM_TOL            IXFTOL          10D- 11             ***   
       YFIELD               IYEFLD              0             x 10-6  
       ZFIELD               IZEFLD              0             x 10-6  
    -------------------------------------------------------------------
   3 entries found in Z-matrix 
   Job Title : SP Test                                                                         
   There are  2 unique internal coordinates.
   Of these,  2 will be optimized.
   User supplied Z-matrix: 
--------------------------------------------------------------------------------
       SYMBOL    BOND      LENGTH    ANGLE     ANGLE     DIHED     ANGLE
                  TO      (ANGST)    WRT      (DEG)      WRT      (DEG)
--------------------------------------------------------------------------------
        O    
        H          1         r1   
        H          1         r1         2        a1   
                  *Initial values for internal coordinates* 
                      Name             Value
                        r1              0.9500000000
                        a1            104.5000000000
--------------------------------------------------------------------------------
  1  O          8    15.99491
  2  H          1     1.00783
  3  H          1     1.00783
 factor:   60.1997200000000     
   Rotational constants (in cm-1): 
 factor:   60.1997200000000     
 factor:   60.1997200000000     
 factor:   60.1997200000000     
          9.6726302583            14.8225246896            27.8399494844
   Rotational constants (in MHz): 
     289978.2006709864        444368.1732995223        834620.8055809441
********************************************************************************
   The full molecular point group is C2v .
   The largest Abelian subgroup of the full molecular point group is C2v .
   The computational point group is C2v .
********************************************************************************
--------------------------------------------------------------------------------
   Analysis of internal coordinates specified by Z-matrix 
--------------------------------------------------------------------------------
   *The nuclear repulsion energy is    9.264698656699112 a.u.
   *There are   2 degrees of freedom within the tot. symm. molecular subspace.
   *Z-matrix requests optimization of   2 coordinates.
   *The optimization is unconstrained and your Z-matrix is great.
--------------------------------------------------------------------------------
 ----------------------------------------------------------------
 Z-matrix   Atomic            Coordinates (in bohr)
  Symbol    Number           X              Y              Z
 ----------------------------------------------------------------
     O         8         0.00000000     0.00000000     0.12300307
     H         1         0.00000000    -1.41947770    -0.97607400
     H         1         0.00000000     1.41947770    -0.97607400
 ----------------------------------------------------------------
   Interatomic distance matrix (Angstroms) 
 
                 O             H             H    
                [ 1]        [ 2]        [ 3]
  O    [ 1]     0.00000
  H    [ 2]     0.95000     0.00000
  H    [ 3]     0.95000     1.50231     0.00000
   Rotational constants (in cm-1): 
          9.6726302583            27.8399494844            14.8225246896
   Rotational constants (in MHz): 
     289978.2006709864        834620.8055809441        444368.1732995223
  There are   24 basis functions.
  @CHECKOUT-I, Total execution time (CPU/WALL):        0.12/       0.35 seconds.
--executable xjoda finished with status     0 in        0.45 seconds (walltime).
 --invoking executable--
/lcrc/project/PACC/brossdh/cfour_blues/bin/xvmol
 Parallel version of molecule started on node            0 :
********************************************************************************
                    Input from MOL file
********************************************************************************
INTGRL        1    0    1    0    0    0    0    0    0                         
         *** CFOUR Program System (Release V0.1) ***                            
SP Test                                                                         
    2    2 X  Y       0.10E-08              0    0                              
   9999.00      3.00                                                            
          8.00000000    1    3    1    1    1                                   
O #1   0.000000000000000   0.000000000000000   0.123003071136340                
    9    3                                                                      
   11720.0000000000       7.100000000000000E-004 -1.600000000000000E-004        
  0.000000000000000E+000                                                        
   1759.00000000000       5.470000000000000E-003 -1.263000000000000E-003        
  0.000000000000000E+000                                                        
   400.800000000000       2.783700000000000E-002 -6.267000000000000E-003        
  0.000000000000000E+000                                                        
   113.700000000000       0.104800000000000      -2.571600000000000E-002        
  0.000000000000000E+000                                                        
   37.0300000000000       0.283062000000000      -7.092400000000000E-002        
  0.000000000000000E+000                                                        
   13.2700000000000       0.448719000000000      -0.165411000000000             
  0.000000000000000E+000                                                        
   5.02500000000000       0.270952000000000      -0.116955000000000             
  0.000000000000000E+000                                                        
   1.01300000000000       1.545800000000000E-002  0.557368000000000             
  0.000000000000000E+000                                                        
  0.302300000000000      -2.585000000000000E-003  0.572759000000000             
   1.00000000000000                                                             
    4    2                                                                      
   17.7000000000000       4.301800000000000E-002  0.000000000000000E+000        
   3.85400000000000       0.228913000000000       0.000000000000000E+000        
   1.04600000000000       0.508728000000000       0.000000000000000E+000        
  0.275300000000000       0.460531000000000        1.00000000000000             
    1    1                                                                      
   1.18500000000000        1.00000000000000                                     
          1.00000000    1    2    1    1                                        
H #2   0.000000000000000  -1.419477704263188  -0.976073997831169                
    4    2                                                                      
   13.0100000000000       1.968500000000000E-002  0.000000000000000E+000        
   1.96200000000000       0.137977000000000       0.000000000000000E+000        
  0.444600000000000       0.478148000000000       0.000000000000000E+000        
  0.122000000000000       0.501240000000000        1.00000000000000             
    1    1                                                                      
  0.727000000000000        1.00000000000000                                     
FINISH                                                                          
 
********************************************************************************
 One- and two-electron integrals over symmetry-adapted AOs are calculated.

  Spherical harmonics are used.
  
  Integrals less than  0.10E-13 are neglected.

  Nuclear repulsion energy :    9.2646986567 a.u.
  required memory for a1 array                5013204  words 
  required memory for a2 array                2046060  words 
 @GETMEM-I,  Allocated      69 MB of main memory.
  @MOLECU-I, One electron integrals (CPU/WALL):        0.01/       0.01 seconds.
  @TWOEL-I,        571 integrals of symmetry type  I I I I
  @TWOEL-I,       1006 integrals of symmetry type  I J I J
  @TWOEL-I,        668 integrals of symmetry type  I I J J
  @TWOEL-I,        386 integrals of symmetry type  I J K L
  @TWOEL-I, Total number of 2-e integrals       2631.
  @MOLECU-I, Two electron integrals (CPU/WALL):        0.02/       0.02 seconds.
  @CHECKOUT-I, Total execution time (CPU/WALL):        0.04/       0.04 seconds.
--executable xvmol finished with status     0 in        0.40 seconds (walltime).
 --invoking executable--
/lcrc/project/PACC/brossdh/cfour_blues/bin/xvmol2ja
 @GETMEM-I,  Allocated   28610 MB of main memory.
  @CHECKOUT-I, Total execution time (CPU/WALL):        0.00/       0.01 seconds.
--executable xvmol2ja finished with status     0 in        0.09 seconds (walltime).
 --invoking executable--
/lcrc/project/PACC/brossdh/cfour_blues/bin/xvscf
  There are   24 functions in the AO basis.

  There are 4 irreducible representations.

       Irrep        # of functions
         1                 11
         2                  4
         3                  7
         4                  2


  Parameters for SCF calculation: 
        SCF reference function:  RHF  
  Maximum number of iterations:  150
     Full symmetry point group: C2v 
     Computational point group: C2v 
        Initial density matrix: MOREAD                 
     SCF convergence tolerance: 10**(- 7)
  DIIS convergence acceleration:  ON
          Latest start for DIIS:   8
                     DIIS order:   6

  Memory information:      62156 words required.
  Fock matrices are constructed from AO integral file.
 @GETMEM-I,  Allocated       0 MB of main memory.
  Initialization and symmetry analysis required      0.005 seconds.

  @INITGES-I, Occupancies from core Hamiltonian:

          Alpha population by irrep:   3    1    1    0
           Beta population by irrep:   3    1    1    0


 total no. of electrons in initial guess :  0.000000000000000E+000
  --------------------------------------------------------------------
  Iteration         Total Energy            Largest Density Difference
  --------------------------------------------------------------------
       0             9.264698656699112              0.0000000000D+00
   current occupation vector 
     3  1  1  0
     3  1  1  0
       1           -68.863154075112604              0.9727392623D+01
   current occupation vector 
     3  1  1  0
     3  1  1  0
       2           -69.962068680546693              0.9403199432D+01
   current occupation vector 
     3  0  2  0
     3  0  2  0
       3           -73.329655139186585              0.7186732421D+01
   current occupation vector 
     3  1  1  0
     3  1  1  0
       4           -73.451099808745425              0.3769119166D+01
   current occupation vector 
     4  0  1  0
     4  0  1  0
       5           -74.720567892020952              0.3222670774D+01
   current occupation vector 
     3  1  1  0
     3  1  1  0
       6           -75.542673094093288              0.2556359418D+01
   current occupation vector 
     3  1  1  0
     3  1  1  0
       7           -75.861087162245227              0.1409039602D+01
   current occupation vector 
     3  1  1  0
     3  1  1  0
       8           -75.970972898336711              0.9116614355D+00
   current occupation vector 
     3  1  1  0
     3  1  1  0
       9           -76.027015267150176              0.3031982844D+00
   current occupation vector 
     3  1  1  0
     3  1  1  0
      10           -76.027022794423715              0.3807626942D-02
   current occupation vector 
     3  1  1  0
     3  1  1  0
      11           -76.027023767186336              0.1655189988D-02
   current occupation vector 
     3  1  1  0
     3  1  1  0
      12           -76.027023786212240              0.2368292053D-03
   current occupation vector 
     3  1  1  0
     3  1  1  0
      13           -76.027023786356381              0.2154641729D-04
   current occupation vector 
     3  1  1  0
     3  1  1  0
      14           -76.027023786361056              0.3541476926D-05
   current occupation vector 
     3  1  1  0
     3  1  1  0
      15           -76.027023786361610              0.1079914951D-05
   current occupation vector 
     3  1  1  0
     3  1  1  0
      16           -76.027023786361369              0.2028152928D-06
   current occupation vector 
     3  1  1  0
     3  1  1  0

  SCF has converged.

 Density matrix saved to file den.dat
 total electron number:   10.0000000000000     
     E(SCF)=       -76.027023786361440              0.5846215201D-07

  Eigenvector printing suppressed.

 @PUTMOS-I, Writing converged MOs to NEWMOS. 
 @PUTMOS-I, Symmetry   1 Full Blocks  2 Partial Blocksize   3
 @PUTMOS-I, Symmetry   2 Full Blocks  1 Partial Blocksize   0
 @PUTMOS-I, Symmetry   3 Full Blocks  1 Partial Blocksize   3
 @PUTMOS-I, Symmetry   4 Full Blocks  0 Partial Blocksize   2


 
  ORBITAL EIGENVALUES (ALPHA)  (1H = 27.2113838 eV)

       MO #        E(hartree)               E(eV)           FULLSYM    COMPSYM
       ----   --------------------   --------------------   -------   ---------
    1     1         -20.5491512541        -559.1708419425      A1        A1 (1)
    2     2          -1.3404251952         -36.4748244693      A1        A1 (1)
    3    16          -0.7031828710         -19.1345789994      B2        B2 (3)
    4     3          -0.5679450163         -15.4545698283      A1        A1 (1)
    5    12          -0.4936842744         -13.4338322752      B1        B1 (2)
  +++++++++++++++++++++++++++++++++++++++++++++++++++++++++++++++++++++++++++++
    6     4           0.1867760606           5.0824350744      A1        A1 (1)
    7    17           0.2573010194           7.0015167957      B2        B2 (3)
    8    18           0.7945352928          21.6204048100      B2        B2 (3)
    9     5           0.8613138733          23.4375423967      A1        A1 (1)
   10     6           1.1630004966          31.6468528954      A1        A1 (1)
   11    13           1.2003983512          32.6645002719      B1        B1 (2)
   12    19           1.2529109948          34.0934419710      B2        B2 (3)
   13     7           1.4433738754          39.2762005199      A1        A1 (1)
   14    23           1.4782295810          40.2246725031      A2        A2 (4)
   15    14           1.6760631067          45.6079965035      B1        B1 (2)
   16     8           1.8657666004          50.7700910804      A1        A1 (1)
   17    20           1.9430814014          52.8739338072      B2        B2 (3)
   18    21           2.4701379128          67.2158708338      B2        B2 (3)
   19     9           2.5088532397          68.2693684519      A1        A1 (1)
   20    15           3.2921916167          89.5850896907      B1        B1 (2)
   21    24           3.3460604052          91.0509339699      A2        A2 (4)
   22    10           3.5202506161          95.7908906565      A1        A1 (1)
   23    11           3.8737944841         105.4113085455      A1        A1 (1)
   24    22           4.1558846009         113.0873709838      B2        B2 (3)


  VSCF finished.

  @CHECKOUT-I, Total execution time (CPU/WALL):        0.02/       0.02 seconds.
--executable xvscf finished with status     0 in        0.12 seconds (walltime).
 --invoking executable--
/lcrc/project/PACC/brossdh/cfour_blues/bin/xvtran
 @GETMEM-I,  Allocated   28610 MB of main memory.
  Partial RHF integral transformation
 ! shown number of AO integrals not right ! (in parallel version)
  Transformation of IIII integrals :
  1 pass through the AO integral file was required.
         571 AO integrals were read.
        1754 MO integrals were written to HF2.
  Transformation of IIJJ integrals :
  1 pass through the AO integral file was required.
         668 AO integrals were read.
        1813 MO integrals were written to HF2.
  Transformation of IJIJ integrals :
  1 pass through the AO integral file was required.
        1006 AO integrals were read.
        2911 MO integrals were written to HF2.
  Transformation of IJKL integrals :
  1 pass through the AO integral file was required.
         386 AO integrals were read.
         984 MO integrals were written to HF2.
  Summary of active molecular orbitals: 
------------------------------------------------------------------------
 
  Index      Eigenvalue    Symmetry    Index      Eigenvalue    Symmetry
------------------------------------------------------------------------
     1       -20.5491513        1        13         3.8737945        1
     2        -1.3404252        1        14         1.2003984        2
     3        -0.5679450        1        15         1.6760631        2
     4        -0.4936843        2        16         3.2921916        2
     5        -0.7031829        3        17         0.2573010        3
     6         0.1867761        1        18         0.7945353        3
     7         0.8613139        1        19         1.2529110        3
     8         1.1630005        1        20         1.9430814        3
     9         1.4433739        1        21         2.4701379        3
    10         1.8657666        1        22         4.1558846        3
    11         2.5088532        1        23         1.4782296        4
    12         3.5202506        1        24         3.3460604        4
------------------------------------------------------------------------
  @CHECKOUT-I, Total execution time (CPU/WALL):        0.01/       0.02 seconds.
--executable xvtran finished with status     0 in        0.10 seconds (walltime).
 --invoking executable--
/lcrc/project/PACC/brossdh/cfour_blues/bin/xintprc
 @GETMEM-I,  Allocated   28610 MB of main memory.
  @GMOIAA-I, Processing MO integrals for spin case AA.
  @GMOIAA-I, Generation of integral list completed.
                      TYPE                NUMBER
                      ----               --------
                      PPPP                     0
                      PPPH                  4884
                      PPHH                  1277
                      PHPH                   832
                      PHHH                   420
                      HHHH                    49

                     TOTAL                  7462

  @FORMT2-I, Second-order MP correlation energies:
            ------------------------------------------------
            E(SCF)                  =    -76.027023786361 a.u.
            E2(AA)                  =     -0.025721643495 a.u.
            E2(AB)                  =     -0.152024287908 a.u.
            E2(TOT)                 =     -0.203467574897 a.u.
            Total MP2 energy        =    -76.230491361259 a.u.
            ------------------------------------------------
   Largest T2 amplitudes for spin case AB:
       _       _                 _       _                 _       _
   i   j   a   b             i   j   a   b             i   j   a   b
-----------------------------------------------------------------------------
[  4   4  14  14]-0.04708 [  3   3   8   8]-0.03267 [  5   5  18  18]-0.03001
[  3   4   8  14] 0.02924 [  4   3  14   8] 0.02924 [  5   5  17  17]-0.02559
[  5   5   7   7]-0.02341 [  5   4  19  14]-0.02327 [  4   5  14  19]-0.02327
[  5   4  17  14]-0.02270 [  4   5  14  17]-0.02270 [  3   3  18  18]-0.02176
[  5   5  19  19]-0.02151 [  5   3  17   8] 0.01862 [  3   5   8  17] 0.01862
-----------------------------------------------------------------------------
   Norm of T2AB vector (     2459 symmetry allowed elements):  0.1928673204.
-----------------------------------------------------------------------------
  @CHECKOUT-I, Total execution time (CPU/WALL):        0.01/       0.01 seconds.
--executable xintprc finished with status     0 in        0.17 seconds (walltime).
  calling xvcc 
 --invoking executable--
/lcrc/project/PACC/brossdh/cfour_blues/bin/xecc
 @GETMEM-I,  Allocated   28610 MB of main memory.
 CCSD(T) energy will be calculated.
 AO based algorithm is used. 
 Largest T2 amplitudes for spin case AB:
        _       _                 _       _                 _       _
    i   j   a   b             i   j   a   b             i   j   a   b
 -----------------------------------------------------------------------------
 [  4   4  14  14]-0.04708 [  3   3   8   8]-0.03267 [  5   5  18  18]-0.03001
 [  3   4   8  14] 0.02924 [  4   3  14   8] 0.02924 [  5   5  17  17]-0.02559
 [  5   5   7   7]-0.02341 [  5   4  19  14]-0.02327 [  4   5  14  19]-0.02327
 [  5   4  17  14]-0.02270 [  4   5  14  17]-0.02270 [  3   3  18  18]-0.02176
 [  5   5  19  19]-0.02151 [  5   3  17   8] 0.01862 [  3   5   8  17] 0.01862
 -----------------------------------------------------------------------------
 Norm of T2AB vector (     2459 symmetry allowed elements):  0.1928673204.
 -----------------------------------------------------------------------------
 The total correlation energy is -0.203467574897 a.u.
 Resorts of amplitudes and integrals (CPU/WALL):       0.00/       0.00 seconds.
 Starting iterative solution of the CC equations.
 The DIIS procedure is used to accelerate convergence.
 5 expansion vectors are used in the DIIS extrapolation.
 Convergence criterium is 10**(-7).
 Maximum number of iterations is  50.
 >>>>>>>>>>>>>>>>>>>>>>>>>>>>>>>>>>>>>>>>>>>>>>>>>>>>>>>>>>>>>>>>>>>>>>>>>>>>>>>
 Iteration Nr.   1 started:
 Generation of Intermediates required (CPU/WALL):      0.01/       0.01 seconds.
 Transformation of t(ab,ij) amplitudes required    0.0 seconds.
 Contraction of t(mu nu,ij) with AO integrals required    0.1 seconds.
 Backtransformation of t(mu nu,ij) increments required    0.0 seconds.
 Construction of Hbar required (CPU/WALL):             0.07/       0.02 seconds.
 Amplitude changes are:
 -------------------------------------------------------------------
              Spin      RMS          Max.      Max. change for
  Amplitude   Case     Change       Change       i    j    a    b
 -------------------------------------------------------------------
     T1        AA    0.0003786274 0.0059219430    5        21
     T2        AB    0.0000093654-0.0036402356    5    5   18   18
 -------------------------------------------------------------------
 The total correlation energy is -0.208498486831 a.u.
 Convergence information after     1 iterations: 
 Largest element of residual vector :  0.59219430E-02.
 Largest element of DIIS residual   :  0.59219430E-02.
 Iteration Nr.   1 required (CPU/WALL):                0.08/       0.03 seconds.
 >>>>>>>>>>>>>>>>>>>>>>>>>>>>>>>>>>>>>>>>>>>>>>>>>>>>>>>>>>>>>>>>>>>>>>>>>>>>>>>
 Iteration Nr.   2 started:
 Generation of Intermediates required (CPU/WALL):      0.00/       0.00 seconds.
 Transformation of t(ab,ij) amplitudes required    0.0 seconds.
 Contraction of t(mu nu,ij) with AO integrals required    0.0 seconds.
 Backtransformation of t(mu nu,ij) increments required    0.0 seconds.
 Construction of Hbar required (CPU/WALL):             0.04/       0.01 seconds.
 Amplitude changes are:
 -------------------------------------------------------------------
              Spin      RMS          Max.      Max. change for
  Amplitude   Case     Change       Change       i    j    a    b
 -------------------------------------------------------------------
     T1        AA    0.0000677343-0.0008870401    2         6
     T2        AB    0.0000036178-0.0017114167    5    5   17   17
 -------------------------------------------------------------------
 The total correlation energy is -0.211644166483 a.u.
 Convergence information after     2 iterations: 
 Largest element of residual vector : -0.17114167E-02.
 Largest element of DIIS residual   : -0.20484733E-02.
 Iteration Nr.   2 required (CPU/WALL):                0.04/       0.01 seconds.
 >>>>>>>>>>>>>>>>>>>>>>>>>>>>>>>>>>>>>>>>>>>>>>>>>>>>>>>>>>>>>>>>>>>>>>>>>>>>>>>
 Iteration Nr.   3 started:
 Generation of Intermediates required (CPU/WALL):      0.02/       0.01 seconds.
 Transformation of t(ab,ij) amplitudes required    0.0 seconds.
 Contraction of t(mu nu,ij) with AO integrals required    0.0 seconds.
 Backtransformation of t(mu nu,ij) increments required    0.0 seconds.
 Construction of Hbar required (CPU/WALL):             0.01/       0.00 seconds.
 Amplitude changes are:
 -------------------------------------------------------------------
              Spin      RMS          Max.      Max. change for
  Amplitude   Case     Change       Change       i    j    a    b
 -------------------------------------------------------------------
     T1        AA    0.0000363829 0.0008375381    3         6
     T2        AB    0.0000008214-0.0003377066    5    5   18   17
 -------------------------------------------------------------------
 The total correlation energy is -0.212505850911 a.u.
 Convergence information after     3 iterations: 
 Largest element of residual vector :  0.83753813E-03.
 Largest element of DIIS residual   :  0.72675165E-03.
 Iteration Nr.   3 required (CPU/WALL):                0.03/       0.01 seconds.
 >>>>>>>>>>>>>>>>>>>>>>>>>>>>>>>>>>>>>>>>>>>>>>>>>>>>>>>>>>>>>>>>>>>>>>>>>>>>>>>
 Iteration Nr.   4 started:
 Generation of Intermediates required (CPU/WALL):      0.00/       0.00 seconds.
 Transformation of t(ab,ij) amplitudes required    0.0 seconds.
 Contraction of t(mu nu,ij) with AO integrals required    0.0 seconds.
 Backtransformation of t(mu nu,ij) increments required    0.0 seconds.
 Construction of Hbar required (CPU/WALL):             0.02/       0.01 seconds.
 Amplitude changes are:
 -------------------------------------------------------------------
              Spin      RMS          Max.      Max. change for
  Amplitude   Case     Change       Change       i    j    a    b
 -------------------------------------------------------------------
     T1        AA    0.0000065418 0.0001421290    3         6
     T2        AB    0.0000001985-0.0001248072    5    5   17   17
 -------------------------------------------------------------------
 The total correlation energy is -0.212767541710 a.u.
 Convergence information after     4 iterations: 
 Largest element of residual vector :  0.14212897E-03.
 Largest element of DIIS residual   :  0.88309963E-04.
 Iteration Nr.   4 required (CPU/WALL):                0.02/       0.01 seconds.
 >>>>>>>>>>>>>>>>>>>>>>>>>>>>>>>>>>>>>>>>>>>>>>>>>>>>>>>>>>>>>>>>>>>>>>>>>>>>>>>
 Iteration Nr.   5 started:
 Generation of Intermediates required (CPU/WALL):      0.02/       0.01 seconds.
 Transformation of t(ab,ij) amplitudes required    0.0 seconds.
 Contraction of t(mu nu,ij) with AO integrals required    0.0 seconds.
 Backtransformation of t(mu nu,ij) increments required    0.0 seconds.
 Construction of Hbar required (CPU/WALL):             0.01/       0.00 seconds.
 Amplitude changes are:
 -------------------------------------------------------------------
              Spin      RMS          Max.      Max. change for
  Amplitude   Case     Change       Change       i    j    a    b
 -------------------------------------------------------------------
     T1        AA    0.0000035101 0.0001099136    3         6
     T2        AB    0.0000000416 0.0000204406    5    5    6    6
 -------------------------------------------------------------------
 The total correlation energy is -0.212784300419 a.u.
 Convergence information after     5 iterations: 
 Largest element of residual vector :  0.10991363E-03.
 Largest element of DIIS residual   :  0.71427971E-04.
 Iteration Nr.   5 required (CPU/WALL):                0.03/       0.01 seconds.
 Largest T1 amplitudes for spin case AA:
    i       a                 i       a                 i       a    
 -----------------------------------------------------------------------------
 [  5      21    ] 0.00721 [  3       6    ] 0.00692 [  5      17    ]-0.00599
 [  3      11    ] 0.00489 [  5      19    ] 0.00435 [  2       8    ] 0.00416
 [  2       6    ]-0.00404 [  4      15    ]-0.00324 [  4      14    ]-0.00297
 [  3       9    ]-0.00292 [  3       7    ]-0.00280 [  2      11    ]-0.00266
 [  5      18    ]-0.00180 [  2      10    ]-0.00139 [  3      10    ] 0.00128
 -----------------------------------------------------------------------------
 Norm of T1AA vector (       33 symmetry allowed elements):  0.0162382743.
 -----------------------------------------------------------------------------
 Largest T2 amplitudes for spin case AB:
        _       _                 _       _                 _       _
    i   j   a   b             i   j   a   b             i   j   a   b
 -----------------------------------------------------------------------------
 [  4   4  14  14]-0.05134 [  5   5  18  18]-0.03592 [  3   3   8   8]-0.03532
 [  4   3  14   8] 0.02857 [  3   4   8  14] 0.02857 [  5   5  17  17]-0.02850
 [  5   5   7   7]-0.02820 [  3   3  18  18]-0.02559 [  5   4  19  14]-0.02282
 [  4   5  14  19]-0.02282 [  5   5  19  19]-0.02217 [  5   4  17  14]-0.02147
 [  4   5  14  17]-0.02147 [  5   3   7  18]-0.02129 [  3   5  18   7]-0.02129
 -----------------------------------------------------------------------------
 Norm of T2AB vector (     2459 symmetry allowed elements):  0.2147510331.
 -----------------------------------------------------------------------------
 >>>>>>>>>>>>>>>>>>>>>>>>>>>>>>>>>>>>>>>>>>>>>>>>>>>>>>>>>>>>>>>>>>>>>>>>>>>>>>>
 Iteration Nr.   6 started:
 Generation of Intermediates required (CPU/WALL):      0.00/       0.00 seconds.
 Transformation of t(ab,ij) amplitudes required    0.0 seconds.
 Contraction of t(mu nu,ij) with AO integrals required    0.0 seconds.
 Backtransformation of t(mu nu,ij) increments required    0.0 seconds.
 Construction of Hbar required (CPU/WALL):             0.02/       0.01 seconds.
 Amplitude changes are:
 -------------------------------------------------------------------
              Spin      RMS          Max.      Max. change for
  Amplitude   Case     Change       Change       i    j    a    b
 -------------------------------------------------------------------
     T1        AA    0.0000012433 0.0000384887    3         6
     T2        AB    0.0000000124 0.0000080762    5    5    6    6
 -------------------------------------------------------------------
 The total correlation energy is -0.212786821531 a.u.
 Convergence information after     6 iterations: 
 Largest element of residual vector :  0.38488712E-04.
 Largest element of DIIS residual   :  0.16185005E-04.
 Iteration Nr.   6 required (CPU/WALL):                0.02/       0.01 seconds.
 >>>>>>>>>>>>>>>>>>>>>>>>>>>>>>>>>>>>>>>>>>>>>>>>>>>>>>>>>>>>>>>>>>>>>>>>>>>>>>>
 Iteration Nr.   7 started:
 Generation of Intermediates required (CPU/WALL):      0.02/       0.01 seconds.
 Transformation of t(ab,ij) amplitudes required    0.0 seconds.
 Contraction of t(mu nu,ij) with AO integrals required    0.0 seconds.
 Backtransformation of t(mu nu,ij) increments required    0.0 seconds.
 Construction of Hbar required (CPU/WALL):             0.01/       0.00 seconds.
 Amplitude changes are:
 -------------------------------------------------------------------
              Spin      RMS          Max.      Max. change for
  Amplitude   Case     Change       Change       i    j    a    b
 -------------------------------------------------------------------
     T1        AA    0.0000004516 0.0000142588    3         6
     T2        AB    0.0000000028-0.0000013617    3    3    6    6
 -------------------------------------------------------------------
 The total correlation energy is -0.212786236529 a.u.
 Convergence information after     7 iterations: 
 Largest element of residual vector :  0.14258772E-04.
 Largest element of DIIS residual   :  0.37927587E-05.
 Iteration Nr.   7 required (CPU/WALL):                0.03/       0.01 seconds.
 >>>>>>>>>>>>>>>>>>>>>>>>>>>>>>>>>>>>>>>>>>>>>>>>>>>>>>>>>>>>>>>>>>>>>>>>>>>>>>>
 Iteration Nr.   8 started:
 Generation of Intermediates required (CPU/WALL):      0.00/       0.00 seconds.
 Transformation of t(ab,ij) amplitudes required    0.0 seconds.
 Contraction of t(mu nu,ij) with AO integrals required    0.0 seconds.
 Backtransformation of t(mu nu,ij) increments required    0.0 seconds.
 Construction of Hbar required (CPU/WALL):             0.02/       0.01 seconds.
 Amplitude changes are:
 -------------------------------------------------------------------
              Spin      RMS          Max.      Max. change for
  Amplitude   Case     Change       Change       i    j    a    b
 -------------------------------------------------------------------
     T1        AA    0.0000000667 0.0000020606    3         6
     T2        AB    0.0000000011 0.0000009380    5    5   17   17
 -------------------------------------------------------------------
 The total correlation energy is -0.212786382956 a.u.
 Convergence information after     8 iterations: 
 Largest element of residual vector :  0.20606449E-05.
 Largest element of DIIS residual   :  0.64034145E-06.
 Iteration Nr.   8 required (CPU/WALL):                0.03/       0.01 seconds.
 >>>>>>>>>>>>>>>>>>>>>>>>>>>>>>>>>>>>>>>>>>>>>>>>>>>>>>>>>>>>>>>>>>>>>>>>>>>>>>>
 Iteration Nr.   9 started:
 Generation of Intermediates required (CPU/WALL):      0.02/       0.01 seconds.
 Transformation of t(ab,ij) amplitudes required    0.0 seconds.
 Contraction of t(mu nu,ij) with AO integrals required    0.0 seconds.
 Backtransformation of t(mu nu,ij) increments required    0.0 seconds.
 Construction of Hbar required (CPU/WALL):             0.01/       0.00 seconds.
 Amplitude changes are:
 -------------------------------------------------------------------
              Spin      RMS          Max.      Max. change for
  Amplitude   Case     Change       Change       i    j    a    b
 -------------------------------------------------------------------
     T1        AA    0.0000000119 0.0000003505    3         6
     T2        AB    0.0000000003-0.0000002247    5    5    6    6
 -------------------------------------------------------------------
 The total correlation energy is -0.212786356717 a.u.
 Convergence information after     9 iterations: 
 Largest element of residual vector :  0.35045405E-06.
 Largest element of DIIS residual   :  0.16869649E-06.
 Iteration Nr.   9 required (CPU/WALL):                0.03/       0.01 seconds.
 >>>>>>>>>>>>>>>>>>>>>>>>>>>>>>>>>>>>>>>>>>>>>>>>>>>>>>>>>>>>>>>>>>>>>>>>>>>>>>>
 Iteration Nr.  10 started:
 Generation of Intermediates required (CPU/WALL):      0.00/       0.00 seconds.
 Transformation of t(ab,ij) amplitudes required    0.0 seconds.
 Contraction of t(mu nu,ij) with AO integrals required    0.0 seconds.
 Backtransformation of t(mu nu,ij) increments required    0.0 seconds.
 Construction of Hbar required (CPU/WALL):             0.02/       0.01 seconds.
 Amplitude changes are:
 -------------------------------------------------------------------
              Spin      RMS          Max.      Max. change for
  Amplitude   Case     Change       Change       i    j    a    b
 -------------------------------------------------------------------
     T1        AA    0.0000000026 0.0000000663    3         6
     T2        AB    0.0000000001 0.0000000447    5    5   17   17
 -------------------------------------------------------------------
 The total correlation energy is -0.212786338514 a.u.
 Convergence information after    10 iterations: 
 Largest element of residual vector :  0.66291096E-07.
 Largest element of DIIS residual   : -0.53483800E-07.
 Amplitude equations converged in    10 iterations.
 Iteration Nr.  10 required (CPU/WALL):                0.03/       0.01 seconds.
 The total correlation energy is -0.212786332308 a.u.
 
 Summary of iterative solution of CC equations:
 -----------------------------------------------------------
                 Correlation           Total
  Iteration        Energy              Energy
 -----------------------------------------------------------
      0     -0.2034675748974498   -76.230491361259   DIIS 
      1     -0.2084984868313311   -76.235522273193   DIIS 
      2     -0.2116441664834286   -76.238667952845   DIIS 
      3     -0.2125058509107908   -76.239529637272   DIIS 
      4     -0.2127675417099897   -76.239791328071   DIIS 
      5     -0.2127843004194027   -76.239808086781   DIIS 
      6     -0.2127868215312999   -76.239810607893   DIIS 
      7     -0.2127862365288742   -76.239810022890   DIIS 
      8     -0.2127863829555781   -76.239810169317   DIIS 
      9     -0.2127863567170264   -76.239810143078   DIIS 
     10     -0.2127863323083347   -76.239810118670   DIIS 
 -----------------------------------------------------------
 A miracle come to pass. The CC iterations have converged.
 
 Non-iterative perturbative treatment of triple
 excitations using the CCSD(T) method ...
 PARA: timing for (T)                0.00 seconds on CPU No.   0
 ... required                        (CPU/WALL):       0.01/       0.01 seconds.
--------------------------------------------------------------------------------
  HF-SCF energy                            -76.027023786361
  MP2 correlation energy                    -0.203467574897
  MP2 energy                               -76.230491361259
  CCSD correlation energy                   -0.212786332308
  CCSD energy                              -76.239810118670
--------------------------------------------------------------------------------
  CCSD(T) energy                           -76.242833075721
--------------------------------------------------------------------------------
  @CHECKOUT-I, Total execution time (CPU/WALL):        0.40/       0.15 seconds.
--executable xecc finished with status     0 in        0.32 seconds (walltime).
 --invoking executable--
/lcrc/project/PACC/brossdh/cfour_blues/bin/xlcc
 @GETMEM-I,  Allocated   28610 MB of main memory.
 Lambda equations are solved for CCSD(T)
 AO based algorithm is used. 
 The total correlation energy is -0.212801976970 a.u.
 Starting iterative solution of the Lambda equations.
 The DIIS procedure is used to accelerate convergence.
 5 expansion vectors are used in the DIIS extrapolation.
 Convergence criterium is 10**(-7).
 Maximum number of iterations is  50.
 The total correlation energy is -0.216055971362 a.u.
 Convergence information after     1 iterations: 
 Largest element of residual vector :  0.26824489E-02.
 Largest element of DIIS residual   :  0.26824489E-02.
 The total correlation energy is -0.215618646935 a.u.
 Convergence information after     2 iterations: 
 Largest element of residual vector : -0.84739239E-03.
 Largest element of DIIS residual   : -0.53282500E-03.
 The total correlation energy is -0.215661431668 a.u.
 Convergence information after     3 iterations: 
 Largest element of residual vector : -0.14912623E-03.
 Largest element of DIIS residual   :  0.80985917E-04.
 The total correlation energy is -0.215661039974 a.u.
 Convergence information after     4 iterations: 
 Largest element of residual vector :  0.71724533E-04.
 Largest element of DIIS residual   :  0.54302817E-04.
 The total correlation energy is -0.215662737339 a.u.
 Convergence information after     5 iterations: 
 Largest element of residual vector :  0.28300615E-04.
 Largest element of DIIS residual   :  0.16357590E-04.
 The total correlation energy is -0.215663445817 a.u.
 Convergence information after     6 iterations: 
 Largest element of residual vector :  0.11921199E-04.
 Largest element of DIIS residual   :  0.56608336E-05.
 The total correlation energy is -0.215663493125 a.u.
 Convergence information after     7 iterations: 
 Largest element of residual vector :  0.27237043E-05.
 Largest element of DIIS residual   :  0.53326572E-06.
 The total correlation energy is -0.215663469648 a.u.
 Convergence information after     8 iterations: 
 Largest element of residual vector :  0.44067667E-06.
 Largest element of DIIS residual   :  0.31802110E-06.
 The total correlation energy is -0.215663458031 a.u.
 Convergence information after     9 iterations: 
 Largest element of residual vector :  0.55495192E-07.
 Largest element of DIIS residual   : -0.31778074E-07.
 Amplitude equations converged in     9 iterations.
 The total correlation energy is -0.215663457929 a.u.
 Summary of iterative solution of CC equations 
 -----------------------------------------------------------
                 Correlation           Total
  Iteration        Energy              Energy
 -----------------------------------------------------------
      0     -0.2128019769695704   -76.239825763331   DIIS 
      1     -0.2160559713622035   -76.243079757724   DIIS 
      2     -0.2156186469345135   -76.242642433296   DIIS 
      3     -0.2156614316679536   -76.242685218029   DIIS 
      4     -0.2156610399736578   -76.242684826335   DIIS 
      5     -0.2156627373387017   -76.242686523700   DIIS 
      6     -0.2156634458168989   -76.242687232178   DIIS 
      7     -0.2156634931247088   -76.242687279486   DIIS 
      8     -0.2156634696477747   -76.242687256009   DIIS 
      9     -0.2156634579287239   -76.242687244290   DIIS 
 -----------------------------------------------------------
 A miracle come to pass. The CC iterations have converged.
  @CHECKOUT-I, Total execution time (CPU/WALL):        0.67/       0.25 seconds.
--executable xlcc finished with status     0 in        0.54 seconds (walltime).
 --invoking executable--
/lcrc/project/PACC/brossdh/cfour_blues/bin/xdens
 @GETMEM-I,  Allocated   28610 MB of main memory.
  CCSD(T) density and intermediates are calculated.
  The perturbed orbitals are chosen canonical.
  Direct algorithm used for all contributions involving G(AB,CD).
 rdaoijkl2 libr
 rdaoijkl2 libr
 rdaoijkl2 libr
 rdaoijkl2 libr
  W(abef) AB contribution =  0.0346480599 a.u.
 rdaoijkl2 libr
 rdaoijkl2 libr
 rdaoijkl2 libr
 rdaoijkl2 libr
  W(abef) AB contribution =  0.0355959674 a.u.
 Para: T
 Para: T
                     1                     1
                     2                     2
                     3                     3
                     4                     4
  processed                    571  ao basis integrals from 
                     1  buffers.
  processed                   1006  ao basis integrals from 
                     2  buffers.
  processed                    668  ao basis integrals from 
                     2  buffers.
  processed                    386  ao basis integrals from 
                     1  buffers.
 Para: T
 Para: T
  The iterative expansion of D(ai) converged after  16 iterations.
  ----------------------------------------------------------------------
                 Natural orbital occupation numbers
  ----------------------------------------------------------------------
  1.99991  1.98421  1.97204  1.96559  1.96277  0.02760  0.02534  0.01741
  0.01184  0.00622  0.00593  0.00537  0.00466  0.00454  0.00127  0.00122
  0.00081  0.00078  0.00070  0.00060  0.00054  0.00054  0.00007  0.00005
  Trace of density matrix :  10.0000000000.
  ----------------------------------------------------------------------
  Density calculation successfully completed.
  @CHECKOUT-I, Total execution time (CPU/WALL):        0.38/       0.16 seconds.
--executable xdens finished with status     0 in        0.33 seconds (walltime).
 --invoking executable--
/lcrc/project/PACC/brossdh/cfour_blues/bin/xanti
 @GETMEM-I,  Allocated   28610 MB of main memory.
 CCSD(T) MO gammas will be sorted to Mulliken order.
  @CHECKOUT-I, Total execution time (CPU/WALL):        0.01/       0.01 seconds.
--executable xanti finished with status     0 in        0.10 seconds (walltime).
 --invoking executable--
/lcrc/project/PACC/brossdh/cfour_blues/bin/xbcktrn
 @GETMEM-I,  Allocated   28610 MB of main memory.
  @CHECKOUT-I, Total execution time (CPU/WALL):        0.00/       0.00 seconds.
--executable xbcktrn finished with status     0 in        0.07 seconds (walltime).
 --invoking executable--
/lcrc/project/PACC/brossdh/cfour_blues/bin/xvdint
 @GETMEM-I,  Allocated   28610 MB of main memory.
 One- and two-electron integral derivatives are calculated
 for RHF-CC/MBPT gradients and dipole moments.
 Spherical gaussians are used.

                     Kinetic energy integral gradient
                     --------------------------------

                         O #1 z    -0.9032314478
                         H #2 y     1.2037700192
                         H #2 z     0.9032314478


 O #1       0.0000000000            0.0000000000           -0.9032314478
 H #2 1     0.0000000000            0.6018850096            0.4516157239
 H #2 2     0.0000000000           -0.6018850096            0.4516157239



                   Nuclear attraction integral gradient
                   ------------------------------------

                         O #1 z     8.4510218083
                         H #2 y   -11.2740413892
                         H #2 z    -8.4510218083


 O #1       0.0000000000            0.0000000000            8.4510218083
 H #2 1     0.0000000000           -5.6370206946           -4.2255109041
 H #2 2     0.0000000000            5.6370206946           -4.2255109041



                      Reorthonormalization gradient
                      -----------------------------

                         O #1 z    -0.4723515121
                         H #2 y     0.5776360187
                         H #2 z     0.4723515121


 O #1       0.0000000000            0.0000000000           -0.4723515121
 H #2 1     0.0000000000            0.2888180093            0.2361757561
 H #2 2     0.0000000000           -0.2888180093            0.2361757561



                Electronic contributions to dipole moment
                -----------------------------------------

                               au             Debye

                    z      0.20800384      0.52869311

  Conversion factor used: 1 a.u. =   2.54174691 Debye 


  Evaluation of 1e integral derivatives required    0.05 seconds.
  Evaluation of 2el integral derivatives

                      Two-electron integral gradient
                      ------------------------------

                         O #1 z    -4.0597443052
                         H #2 y     5.3394235135
                         H #2 z     4.0597443052


 O #1       0.0000000000            0.0000000000           -4.0597443052
 H #2 1     0.0000000000            2.6697117567            2.0298721526
 H #2 2     0.0000000000           -2.6697117567            2.0298721526


  Evaluation of 2e integral derivatives required    0.03 seconds.

                            Molecular gradient
                            ------------------

                         O #1 z    -0.0236535312
                         H #2 y     0.0203097792
                         H #2 z     0.0236535312


 O #1       0.0000000000            0.0000000000           -0.0236535312
 H #2 1     0.0000000000            0.0101548896            0.0118267656
 H #2 2     0.0000000000           -0.0101548896            0.0118267656


  Molecular gradient norm 0.391E-01

                           Total dipole moment
                           -------------------

                               au             Debye

                    z     -0.76011959     -1.93203162

  Conversion factor used: 1 a.u. =   2.54174691 Debye 


  @CHECKOUT-I, Total execution time (CPU/WALL):        0.07/       0.07 seconds.
--executable xvdint finished with status     0 in        0.17 seconds (walltime).
 --invoking executable--
/lcrc/project/PACC/brossdh/cfour_blues/bin/xjoda
   JODA beginning optimization cycle #  1.
 OriVec is   0.000000000000000E+000  -1.00000000000000     
  3.910674402601636E-016                    -2
  igrd and ihes are                      0                     0
  fetching hessian                     81
  iavhes is                      0
   Internal coordinate forces and energy gradients (atomic units): 
           R       dV/dR             R       dV/dR             R       dV/dR
 [r1   ]  1.79524 -0.0152699 [r1   ]  1.79524 -0.0152699 [a1   ]  1.82387  0.0056268
                     0                     0                     0 ****
   Optimization cycle  1.  Updating structure with Newton-Raphson step.
  @EFOL-I, Current internal coordinate Hessian written to FCMINT.
   There are   2 independent internal coordinates which will be optimized.
   Hessian matrix in totally symmetric symmetry coordinates: 
              r1        a1   
  r1         1.000000  0.000000
  a1         0.000000  0.250000
   The eigenvectors of the Hessian matrix: 
                   1         2
  r1         0.000000  1.000000
  a1         1.000000  0.000000
   The eigenvalues of the Hessian matrix: 
     0.25000    1.00000
   Gradients along Hessian eigenvectors: 
     0.00563   -0.02159
   There are  0 negative eigenvalues.
   Summary of Optimization Cycle: 
   The maximum unscaled step is:    0.02720.
   Scale factor set to:  1.00000.
   Forces are in hartree/bohr and hartree/radian.
   Parameter values are in Angstroms and degrees.
--------------------------------------------------------------------------
  Parameter     dV/dR           Step          Rold            Rnew
--------------------------------------------------------------------------
    r1     -0.0152699156    0.0080804897    0.9500000000    0.9580804897
    a1      0.0056268238   -1.2895730120  104.5000000000  103.2104269880
--------------------------------------------------------------------------
  Minimum force:  0.005626824 / RMS force:  0.011507204
 
********************************************************************************
*                          Current ZMATtemp file                               *
********************************************************************************
SP Test                                                                         
O                                                                               
H 1 r1*                                                                         
H 1 r1* 2 a1*                                                                   
                                                                                
r1   =        0.958080489653280                                                 
a1   =      103.210426987982927                                                 
                                                                                
*CFOUR(CALC=CCSD[T]                                                             
CC_PROG=ECC,ABCDTYPE=AOBASIS                                                    
REFERENCE=RHF                                                                   
BASIS=PVDZ                                                                      
MEMORY_SIZE=30,MEM_UNIT=GB                                                      
CHARGE=0,MULTIPLICITY=1)                                                        
                                                                                
********************************************************************************
 Updating structure...
 factor:   60.1997200000000     
 factor:   60.1997200000000     
 factor:   60.1997200000000     
 factor:   60.1997200000000     
   Rotational constants (in cm-1): 
          9.5223130826            14.8327728450            26.5970016220
   Rotational constants (in MHz): 
     285471.8044826126        444675.4053142106        797358.1608770369
 ----------------------------------------------------------------
 Z-matrix   Atomic            Coordinates (in bohr)
  Symbol    Number           X              Y              Z
 ----------------------------------------------------------------
     O         8         0.00000000    -0.00000000     0.12584438
     H         1         0.00000000    -1.41898725    -0.99862084
     H         1         0.00000000     1.41898725    -0.99862084
 ----------------------------------------------------------------
   Interatomic distance matrix (Angstroms) 
 
                 O             H             H    
                [ 1]        [ 2]        [ 3]
  O    [ 1]     0.00000
  H    [ 2]     0.95808     0.00000
  H    [ 3]     0.95808     1.50179     0.00000
   Rotational constants (in cm-1): 
          9.5223130826            26.5970016220            14.8327728450
   Rotational constants (in MHz): 
     285471.8044826126        797358.1608770369        444675.4053142107
  There are   24 basis functions.
  @CHECKOUT-I, Total execution time (CPU/WALL):        0.01/       0.03 seconds.
--executable xjoda finished with status     0 in        0.07 seconds (walltime).
 --invoking executable--
/lcrc/project/PACC/brossdh/cfour_blues/bin/xvmol
 Parallel version of molecule started on node            0 :
********************************************************************************
                    Input from MOL file
********************************************************************************
INTGRL        1    0    1    0    0    0    0    0    0                         
         *** CFOUR Program System (Release V0.1) ***                            
SP Test                                                                         
    2    2 X  Y       0.10E-08              0    0                              
   9999.00      3.00                                                            
          8.00000000    1    3    1    1    1                                   
O #1   0.000000000000000  -0.000000000000000   0.125844383228779                
    9    3                                                                      
   11720.0000000000       7.100000000000000E-004 -1.600000000000000E-004        
  0.000000000000000E+000                                                        
   1759.00000000000       5.470000000000000E-003 -1.263000000000000E-003        
  0.000000000000000E+000                                                        
   400.800000000000       2.783700000000000E-002 -6.267000000000000E-003        
  0.000000000000000E+000                                                        
   113.700000000000       0.104800000000000      -2.571600000000000E-002        
  0.000000000000000E+000                                                        
   37.0300000000000       0.283062000000000      -7.092400000000000E-002        
  0.000000000000000E+000                                                        
   13.2700000000000       0.448719000000000      -0.165411000000000             
  0.000000000000000E+000                                                        
   5.02500000000000       0.270952000000000      -0.116955000000000             
  0.000000000000000E+000                                                        
   1.01300000000000       1.545800000000000E-002  0.557368000000000             
  0.000000000000000E+000                                                        
  0.302300000000000      -2.585000000000000E-003  0.572759000000000             
   1.00000000000000                                                             
    4    2                                                                      
   17.7000000000000       4.301800000000000E-002  0.000000000000000E+000        
   3.85400000000000       0.228913000000000       0.000000000000000E+000        
   1.04600000000000       0.508728000000000       0.000000000000000E+000        
  0.275300000000000       0.460531000000000        1.00000000000000             
    1    1                                                                      
   1.18500000000000        1.00000000000000                                     
          1.00000000    1    2    1    1                                        
H #2   0.000000000000000  -1.418987251739786  -0.998620840178537                
    4    2                                                                      
   13.0100000000000       1.968500000000000E-002  0.000000000000000E+000        
   1.96200000000000       0.137977000000000       0.000000000000000E+000        
  0.444600000000000       0.478148000000000       0.000000000000000E+000        
  0.122000000000000       0.501240000000000        1.00000000000000             
    1    1                                                                      
  0.727000000000000        1.00000000000000                                     
FINISH                                                                          
 
********************************************************************************
 One- and two-electron integrals over symmetry-adapted AOs are calculated.

  Spherical harmonics are used.
  
  Integrals less than  0.10E-13 are neglected.

  Nuclear repulsion energy :    9.1896523857 a.u.
  required memory for a1 array                5013204  words 
  required memory for a2 array                2046060  words 
 @GETMEM-I,  Allocated      69 MB of main memory.
  @MOLECU-I, One electron integrals (CPU/WALL):        0.01/       0.01 seconds.
  @TWOEL-I,        571 integrals of symmetry type  I I I I
  @TWOEL-I,       1006 integrals of symmetry type  I J I J
  @TWOEL-I,        668 integrals of symmetry type  I I J J
  @TWOEL-I,        386 integrals of symmetry type  I J K L
  @TWOEL-I, Total number of 2-e integrals       2631.
  @MOLECU-I, Two electron integrals (CPU/WALL):        0.02/       0.02 seconds.
  @CHECKOUT-I, Total execution time (CPU/WALL):        0.03/       0.03 seconds.
--executable xvmol finished with status     0 in        0.27 seconds (walltime).
 --invoking executable--
/lcrc/project/PACC/brossdh/cfour_blues/bin/xvmol2ja
 @GETMEM-I,  Allocated   28610 MB of main memory.
  @CHECKOUT-I, Total execution time (CPU/WALL):        0.01/       0.01 seconds.
--executable xvmol2ja finished with status     0 in        0.06 seconds (walltime).
 --invoking executable--
/lcrc/project/PACC/brossdh/cfour_blues/bin/xvscf
  There are   24 functions in the AO basis.

  There are 4 irreducible representations.

       Irrep        # of functions
         1                 11
         2                  4
         3                  7
         4                  2


  Parameters for SCF calculation: 
        SCF reference function:  RHF  
  Maximum number of iterations:  150
     Full symmetry point group: C2v 
     Computational point group: C2v 
        Initial density matrix: MOREAD                 
     SCF convergence tolerance: 10**(- 7)
  DIIS convergence acceleration:  ON
          Latest start for DIIS:   8
                     DIIS order:   6

     Alpha population by irrep:   3    1    1    0
      Beta population by irrep:   3    1    1    0


  Memory information:      62156 words required.
  Fock matrices are constructed from AO integral file.
 @GETMEM-I,  Allocated       0 MB of main memory.
  Initialization and symmetry analysis required      0.003 seconds.

 total no. of electrons in initial guess :  0.000000000000000E+000
  --------------------------------------------------------------------
  Iteration         Total Energy            Largest Density Difference
  --------------------------------------------------------------------
       0           -76.014259838995343              0.0000000000D+00
   current occupation vector 
     3  1  1  0
     3  1  1  0
       1           -76.026719517658776              0.7688354724D-02
   current occupation vector 
     3  1  1  0
     3  1  1  0
       2           -76.026730091275127              0.5415754916D-02
   current occupation vector 
     3  1  1  0
     3  1  1  0
       3           -76.026732277200111              0.2635203538D-02
   current occupation vector 
     3  1  1  0
     3  1  1  0
       4           -76.026732651247286              0.9126154707D-03
   current occupation vector 
     3  1  1  0
     3  1  1  0
       5           -76.026732680538828              0.2370679390D-03
   current occupation vector 
     3  1  1  0
     3  1  1  0
       6           -76.026732682145763              0.7874342113D-04
   current occupation vector 
     3  1  1  0
     3  1  1  0
       7           -76.026732682163612              0.6734559023D-05
   current occupation vector 
     3  1  1  0
     3  1  1  0
       8           -76.026732682163910              0.1092457924D-05
   current occupation vector 
     3  1  1  0
     3  1  1  0
       9           -76.026732682164010              0.2624577993D-06
   current occupation vector 
     3  1  1  0
     3  1  1  0

  SCF has converged.

 Density matrix saved to file den.dat
 total electron number:   10.0000000000000     
     E(SCF)=       -76.026732682164067              0.1680256800D-07

  Eigenvector printing suppressed.

 @PUTMOS-I, Writing converged MOs to NEWMOS. 
 @PUTMOS-I, Symmetry   1 Full Blocks  2 Partial Blocksize   3
 @PUTMOS-I, Symmetry   2 Full Blocks  1 Partial Blocksize   0
 @PUTMOS-I, Symmetry   3 Full Blocks  1 Partial Blocksize   3
 @PUTMOS-I, Symmetry   4 Full Blocks  0 Partial Blocksize   2
 @PUTMOS-I, NEWMOS already exists and will be deleted. 


 
  ORBITAL EIGENVALUES (ALPHA)  (1H = 27.2113838 eV)

       MO #        E(hartree)               E(eV)           FULLSYM    COMPSYM
       ----   --------------------   --------------------   -------   ---------
    1     1         -20.5512847792        -559.2288981134      A1        A1 (1)
    2     2          -1.3373142693         -36.3901718699      A1        A1 (1)
    3    16          -0.6963543996         -18.9487668432      B2        B2 (3)
    4     3          -0.5690963632         -15.4858995684      A1        A1 (1)
    5    12          -0.4935596295         -13.4304405174      B1        B1 (2)
  +++++++++++++++++++++++++++++++++++++++++++++++++++++++++++++++++++++++++++++
    6     4           0.1851560969           5.0383536202      A1        A1 (1)
    7    17           0.2562873707           6.9739340136      B2        B2 (3)
    8    18           0.7843044034          21.3420081522      B2        B2 (3)
    9     5           0.8594291029          23.3862551853      A1        A1 (1)
   10     6           1.1646727002          31.6923558705      A1        A1 (1)
   11    13           1.2000372560          32.6546743718      B1        B1 (2)
   12    19           1.2547108236          34.1424178039      B2        B2 (3)
   13     7           1.4326303858          38.9838553008      A1        A1 (1)
   14    23           1.4803896859          40.2834519469      A2        A2 (4)
   15    14           1.6671688598          45.3659717356      B1        B1 (2)
   16     8           1.8646440461          50.7395448264      A1        A1 (1)
   17    20           1.9417176240          52.8368235352      B2        B2 (3)
   18    21           2.4475046320          66.5999879418      B2        B2 (3)
   19     9           2.4908318537          67.7789816003      A1        A1 (1)
   20    15           3.2917480607          89.5730199177      B1        B1 (2)
   21    24           3.3331360613          90.6992446857      A2        A2 (4)
   22    10           3.5145262372          95.6351223834      A1        A1 (1)
   23    11           3.8552208776         104.9058950109      A1        A1 (1)
   24    22           4.1539716058         113.0353157400      B2        B2 (3)


  VSCF finished.

  @CHECKOUT-I, Total execution time (CPU/WALL):        0.01/       0.01 seconds.
--executable xvscf finished with status     0 in        0.06 seconds (walltime).
 --invoking executable--
/lcrc/project/PACC/brossdh/cfour_blues/bin/xvtran
 @GETMEM-I,  Allocated   28610 MB of main memory.
  Partial RHF integral transformation
 ! shown number of AO integrals not right ! (in parallel version)
  Transformation of IIII integrals :
  1 pass through the AO integral file was required.
         571 AO integrals were read.
        1754 MO integrals were written to HF2.
  Transformation of IIJJ integrals :
  1 pass through the AO integral file was required.
         668 AO integrals were read.
        1813 MO integrals were written to HF2.
  Transformation of IJIJ integrals :
  1 pass through the AO integral file was required.
        1006 AO integrals were read.
        2911 MO integrals were written to HF2.
  Transformation of IJKL integrals :
  1 pass through the AO integral file was required.
[...]
 Para: T
  The iterative expansion of D(ai) converged after  16 iterations.
  ----------------------------------------------------------------------
                 Natural orbital occupation numbers
  ----------------------------------------------------------------------
  1.99992  1.98408  1.97194  1.96445  1.96147  0.02909  0.02649  0.01754
  0.01168  0.00623  0.00586  0.00529  0.00467  0.00455  0.00134  0.00125
  0.00082  0.00079  0.00074  0.00060  0.00057  0.00053  0.00007  0.00005
  Trace of density matrix :  10.0000000000.
  ----------------------------------------------------------------------
  Density calculation successfully completed.
  @CHECKOUT-I, Total execution time (CPU/WALL):        0.92/       0.24 seconds.
--executable xdens finished with status     0 in        0.48 seconds (walltime).
 --invoking executable--
/lcrc/project/PACC/brossdh/cfour_blues/bin/xanti
 @GETMEM-I,  Allocated   28610 MB of main memory.
 CCSD(T) MO gammas will be sorted to Mulliken order.
  @CHECKOUT-I, Total execution time (CPU/WALL):        0.01/       0.01 seconds.
--executable xanti finished with status     0 in        0.06 seconds (walltime).
 --invoking executable--
/lcrc/project/PACC/brossdh/cfour_blues/bin/xbcktrn
 @GETMEM-I,  Allocated   28610 MB of main memory.
  @CHECKOUT-I, Total execution time (CPU/WALL):        0.00/       0.00 seconds.
--executable xbcktrn finished with status     0 in        0.05 seconds (walltime).
 --invoking executable--
/lcrc/project/PACC/brossdh/cfour_blues/bin/xvdint
 @GETMEM-I,  Allocated   28610 MB of main memory.
 One- and two-electron integral derivatives are calculated
 for RHF-CC/MBPT gradients and dipole moments.
 Spherical gaussians are used.

                     Kinetic energy integral gradient
                     --------------------------------

                         O #1 z    -0.9072451420
                         H #2 y     1.1381878838
                         H #2 z     0.9072451420


 O #1       0.0000000000            0.0000000000           -0.9072451420
 H #2 1     0.0000000000            0.5690939419            0.4536225710
 H #2 2     0.0000000000           -0.5690939419            0.4536225710



                   Nuclear attraction integral gradient
                   ------------------------------------

                         O #1 z     8.5502604951
                         H #2 y   -10.7686316747
                         H #2 z    -8.5502604951


 O #1       0.0000000000            0.0000000000            8.5502604951
 H #2 1     0.0000000000           -5.3843158373           -4.2751302476
 H #2 2     0.0000000000            5.3843158373           -4.2751302476



                      Reorthonormalization gradient
                      -----------------------------

                         O #1 z    -0.4788733581
                         H #2 y     0.5533435995
                         H #2 z     0.4788733581


 O #1       0.0000000000            0.0000000000           -0.4788733581
 H #2 1     0.0000000000            0.2766717998            0.2394366791
 H #2 2     0.0000000000           -0.2766717998            0.2394366791



                Electronic contributions to dipole moment
                -----------------------------------------

                               au             Debye

                    z      0.23638012      0.60081845

  Conversion factor used: 1 a.u. =   2.54174691 Debye 


  Evaluation of 1e integral derivatives required    0.05 seconds.
  Evaluation of 2el integral derivatives

                      Two-electron integral gradient
                      ------------------------------

                         O #1 z    -4.1389644056
                         H #2 y     5.0966091955
                         H #2 z     4.1389644056


 O #1       0.0000000000            0.0000000000           -4.1389644056
 H #2 1     0.0000000000            2.5483045977            2.0694822028
 H #2 2     0.0000000000           -2.5483045977            2.0694822028


  Evaluation of 2e integral derivatives required    0.03 seconds.

                            Molecular gradient
                            ------------------

                         O #1 z     0.0000023402
                         H #2 y     0.0000091100
                         H #2 z    -0.0000023402


 O #1       0.0000000000            0.0000000000            0.0000023402
 H #2 1     0.0000000000            0.0000045550           -0.0000011701
 H #2 2     0.0000000000           -0.0000045550           -0.0000011701


  Molecular gradient norm 0.969E-05

                           Total dipole moment
                           -------------------

                               au             Debye

                    z     -0.77595080     -1.97227056

  Conversion factor used: 1 a.u. =   2.54174691 Debye 


  @CHECKOUT-I, Total execution time (CPU/WALL):        0.07/       0.11 seconds.
--executable xvdint finished with status     0 in        0.15 seconds (walltime).
 --invoking executable--
/lcrc/project/PACC/brossdh/cfour_blues/bin/xjoda
   JODA beginning optimization cycle #  5.
   Retrieving information from last optimization cycle.
 OriVec is   0.000000000000000E+000  -1.00000000000000     
  3.915629638499793E-016                    -2
  igrd and ihes are                      0                    -1
   Internal coordinate forces and energy gradients (atomic units): 
           R       dV/dR             R       dV/dR             R       dV/dR
 [r1   ]  1.82500 -0.0000028 [r1   ]  1.82500 -0.0000028 [a1   ]  1.77917 -0.0000069
                     4                    -1                     0 ****
   Hessian from cycle  4 read.
   BFGS update using last two gradients and previous step.
   Optimization cycle  5.  Updating structure with Newton-Raphson step.
  @EFOL-I, Current internal coordinate Hessian written to FCMINT.
   There are   2 independent internal coordinates which will be optimized.
   Hessian matrix in totally symmetric symmetry coordinates: 
              r1        a1   
  r1         0.549423  0.036652
  a1         0.036652  0.180408
   The eigenvectors of the Hessian matrix: 
                   1         2
  r1         0.097891  0.995197
  a1        -0.995197  0.097891
   The eigenvalues of the Hessian matrix: 
     0.17680    0.55303
   Gradients along Hessian eigenvectors: 
     0.00001   -0.00000
   There are  0 negative eigenvalues.
   Summary of Optimization Cycle: 
   The maximum unscaled step is:    0.00004.
   Scale factor set to:  1.00000.
   Forces are in hartree/bohr and hartree/radian.
   Parameter values are in Angstroms and degrees.
--------------------------------------------------------------------------
  Parameter     dV/dR           Step          Rold            Rnew
--------------------------------------------------------------------------
    r1     -0.0000028015    0.0000017684    0.9657487708    0.9657505392
    a1     -0.0000068937    0.0021343503  101.9390725983  101.9412069486
--------------------------------------------------------------------------
  Minimum force:  0.000002802 / RMS force:  0.000005262
--------------------------------------------------------------------------------
   RMS gradient is below .10000E-04.
   Convergence criterion satisfied.  Optimization completed.
--------------------------------------------------------------------------------
   Interatomic distance matrix (Angstroms) 
 
                 O             H             H    
                [ 1]        [ 2]        [ 3]
  O    [ 1]     0.00000
  H    [ 2]     0.96575     0.00000
  H    [ 3]     0.96575     1.50041     0.00000
 @EFOL-I, Writing out completion flag to disk
 
********************************************************************************
*                          Final ZMATnew file                                  *
********************************************************************************
SP Test                                                                         
O                                                                               
H 1 r1*                                                                         
H 1 r1* 2 a1*                                                                   
                                                                                
r1   =        0.965750539242277                                                 
a1   =      101.941206948615445                                                 
                                                                                
*CFOUR(CALC=CCSD[T]                                                             
CC_PROG=ECC,ABCDTYPE=AOBASIS                                                    
REFERENCE=RHF                                                                   
BASIS=PVDZ                                                                      
MEMORY_SIZE=30,MEM_UNIT=GB                                                      
CHARGE=0,MULTIPLICITY=1)                                                        
                                                                                
********************************************************************************
--executable xjoda finished with status     0 in        0.05 seconds (walltime).
 --invoking executable--
/lcrc/project/PACC/brossdh/cfour_blues/bin/xvprop
 @GETMEM-I,  Allocated   28610 MB of main memory.
   Property integrals will be calculated.
    --------------------------------------------------------------
                                   Property evaluated at 
    Property type                X             Y             Z
    --------------------------------------------------------------
    Dipole moment               ----          ----          ----  
    Quadrupole moment           ----          ----          ----  
    Octopole moment             ----          ----          ----  
    Relativisitic corr.         ----          ----          ----  
    Second moment            0.0000000     0.0000000     0.0000000
    Electron density         0.0000000     0.0000000     0.1286198
    Electron density         0.0000000    -1.4176814    -1.0206445
    Electron density         0.0000000     1.4176814    -1.0206445
    Field gradient           0.0000000     0.0000000     0.1286198
    Field gradient           0.0000000    -1.4176814    -1.0206445
    Field gradient           0.0000000     1.4176814    -1.0206445
    Potential                0.0000000     0.0000000     0.1286198
    Potential                0.0000000    -1.4176814    -1.0206445
    Potential                0.0000000     1.4176814    -1.0206445
    --------------------------------------------------------------
 
  @CHECKOUT-I, Total execution time (CPU/WALL):        0.04/       0.04 seconds.
--executable xvprop finished with status     0 in        0.15 seconds (walltime).
 --invoking executable--
/lcrc/project/PACC/brossdh/cfour_blues/bin/xprops
  @DRVPRP-I, Properties computed from the SCF density matrix follow.
   Components of electric dipole moment 
        X =    0.0000000000   Y =    0.0000000000   Z =   -0.8274448141
   Components of second moment 
       XX =    5.2418589989  YY =    7.1552382780  ZZ =    6.3746145825
       XY =    0.0000000000  XZ =    0.0000000000  YZ =    0.0000000000
   Components of electric quadrupole moment 
       XX =   -1.5946404558  YY =    1.5647518801  ZZ =    0.0298885758
       XY =    0.0000000000  XZ =    0.0000000000  YZ =   -0.0000000000
   Components of electric octopole moment 
      XXX =    0.0000000000 YYY =    0.0000000000 ZZZ =    1.6509386419
      XXY =    0.0000000000 XXZ =    1.2086756367 XYY =    0.0000000000
      YYZ =   -2.8596142786 XZZ =    0.0000000000 YZZ =   -0.0000000000
      XYZ =    0.0000000000
  Relativistic correction to the energy 
      Darwin =    0.1989571776 p**4   =   -0.2504560157 Total  =   -0.0514988381
   Charge densities at atomic centers 
          Z-matrix                               Charge
           center                               Density
              1                            297.2270484696
              2                              0.3587702268
              3                              0.3587702268
   Electric field gradient at atomic centers 
                             Z-matrix center   1:
       XX =   -2.0138105909  YY =    1.7167787491  ZZ =    0.2970318418
       XY =    0.0000000000  XZ =    0.0000000000  YZ =   -0.0000000000
                             Z-matrix center   2:
       XX =   -0.2721315030  YY =    0.2193445255  ZZ =    0.0527869775
       XY =    0.0000000000  XZ =    0.0000000000  YZ =    0.3317416083
                             Z-matrix center   3:
       XX =   -0.2721315030  YY =    0.2193445255  ZZ =    0.0527869775
       XY =    0.0000000000  XZ =    0.0000000000  YZ =   -0.3317416083
   Electrostatic potential at atomic centers 
          Z-matrix                             Potential
           center                               [<1/r>]
              1                            -22.3405033623
              2                             -1.0028476613
              3                             -1.0028476613
  @DRVPRP-I, Properties computed from the correlated density matrix follow.
   Components of electric dipole moment 
        X =    0.0000000000   Y =    0.0000000000   Z =   -0.7759508035
   Components of second moment 
       XX =    5.2609456942  YY =    7.2795235179  ZZ =    6.4512110834
       XY =    0.0000000000  XZ =    0.0000000000  YZ =    0.0000000000
   Components of electric quadrupole moment 
       XX =   -1.5132862807  YY =    1.4883082383  ZZ =    0.0249780424
       XY =    0.0000000000  XZ =    0.0000000000  YZ =   -0.0000000000
   Components of electric octopole moment 
      XXX =    0.0000000000 YYY =    0.0000000000 ZZZ =    1.4890682676
      XXY =    0.0000000000 XXZ =    1.0731294718 XYY =    0.0000000000
      YYZ =   -2.5621977394 XZZ =    0.0000000000 YZZ =   -0.0000000000
      XYZ =    0.0000000000
  Relativistic correction to the energy 
      Darwin =    0.1989300785 p**4   =   -0.2504749183 Total  =   -0.0515448398
   Charge densities at atomic centers 
          Z-matrix                               Charge
           center                               Density
              1                            297.1847817919
              2                              0.3658519834
              3                              0.3658519834
   Electric field gradient at atomic centers 
                             Z-matrix center   1:
       XX =   -1.8999419757  YY =    1.5950307497  ZZ =    0.3049112261
       XY =    0.0000000000  XZ =    0.0000000000  YZ =   -0.0000000000
                             Z-matrix center   2:
       XX =   -0.2783895686  YY =    0.2256093960  ZZ =    0.0527801726
       XY =    0.0000000000  XZ =    0.0000000000  YZ =    0.3389355921
                             Z-matrix center   3:
       XX =   -0.2783895686  YY =    0.2256093960  ZZ =    0.0527801726
       XY =    0.0000000000  XZ =    0.0000000000  YZ =   -0.3389355921
   Electrostatic potential at atomic centers 
          Z-matrix                             Potential
           center                               [<1/r>]
              1                            -22.3371024413
              2                             -1.0048225544
              3                             -1.0048225544
 
  Mulliken population analysis of SCF density.
   Total density is analyzed.
 
  Population analysis by orbitals.
 -------------------------------------------------------
     Z-matrix
      Center          Function          Population
 -------------------------------------------------------
         1                S              2.00076434
         1                S              1.82490460
         1                S             -0.15512260
         1                P              1.83610359
         1                P              0.11964221
         1                P              1.33610184
         1                P             -0.17197973
         1                P              1.53917738
         1                P             -0.03204953
         1                D              0.00136640
         1                D              0.00000000
         1                D              0.00111932
         1                D             -0.00008210
         1                D              0.00895416
         1                D              0.00102963
         2                S              1.07740027
         3                S              1.07740027
         2                S             -0.31781268
         3                S             -0.31781268
         2                P              0.02156744
         3                P              0.02156744
         2                P              0.03677604
         3                P              0.03677604
         2                P              0.02710418
         3                P              0.02710418
 -------------------------------------------------------
  Population analysis by atoms (atomic charges).
 -------------------------------------------------------
     Z-matrix
      Center          Function          Population
 -------------------------------------------------------
         1                               8.30992952
         2                               0.84503524
         3                               0.84503524
 -------------------------------------------------------
 
  Mulliken population analysis of CCSD(T) density.
   Total density is analyzed.
 
  Population analysis by orbitals.
 -------------------------------------------------------
     Z-matrix
      Center          Function          Population
 -------------------------------------------------------
         1                S              2.00099671
         1                S              1.82550427
         1                S             -0.16422466
         1                P              1.80652189
         1                P              0.13518797
         1                P              1.33808071
         1                P             -0.18963701
         1                P              1.52202854
         1                P             -0.03528376
         1                D              0.00398092
         1                D              0.00409236
         1                D              0.00513166
         1                D              0.00248292
         1                D              0.01221701
         1                D              0.00356690
         2                S              1.09128258
         3                S              1.09128258
         2                S             -0.31378359
         3                S             -0.31378359
         2                P              0.02490157
         3                P              0.02490157
         2                P              0.03461965
         3                P              0.03461965
         2                P              0.02765656
         3                P              0.02765656
 -------------------------------------------------------
  Population analysis by atoms (atomic charges).
 -------------------------------------------------------
     Z-matrix
      Center          Function          Population
 -------------------------------------------------------
         1                               8.27064646
         2                               0.86467677
         3                               0.86467677
 -------------------------------------------------------
  @CHECKOUT-I, Total execution time (CPU/WALL):        0.01/       0.02 seconds.
--executable xprops finished with status     0 in        0.09 seconds (walltime).
  The final electronic energy is       -76.243404951842351 a.u. 
  This computation required                           36.43 seconds (walltime).
