
 Primary working directories    : /scratch/kmoore
 Secondary working directories  : /scratch/kmoore
 Wavefunction directory         : /scratch/kmoore/
 Main file repository           : /scratch/kmoore/

 SHA1      : b6b3a4772808bb2d43777f23454e145ddfe12dc3
 NAME      : 2015.1.1
 ARCHNAME  : linux/x86_64
 FC        : /soft/mvapich2/2.2b_psm/intel-15.0/bin/mpif90
 BLASLIB   : -L/soft/intel/15.0.1/composer_xe_2015.0.090/mkl/lib/intel64 -lmkl_intel_ilp64 -lmkl_sequential -lmkl_core
 id        : anlgov

 Nodes     nprocs
 b450         3
 Number of processes for MPI-2 version of Molpro:   nprocs(total)=    4   nprocs(compute)=    3   nprocs(helper)=    1

 Using customized tuning parameters: mindgm=1; mindgv=20; mindgc=4; mindgr=1; noblas=0; minvec=7
 default implementation of scratch files=sf  

 memory,500,m
 GTHRESH,energy=1d-8
 
 nosym
 angstrom
 geometry = {
 H       -5.7415511456      3.5138394319     -0.2160943837
 H       -5.0724662690      3.2953109732     -0.2924798552
 }
 
 basis=cc-pVTZ
 {rhf}
 {ccsd(t)}
 {optg}
 {freq}
 

 Variables initialized (889), CPU time= 0.01 sec
 Commands  initialized (702), CPU time= 0.01 sec, 572 directives.
 Default parameters read. Elapsed time= 0.21 sec

 Checking input...
 Passed
1


                                         ***  PROGRAM SYSTEM MOLPRO  ***
                                       Copyright, TTI GmbH Stuttgart, 2015
                                    Version 2015.1 linked Jan  8 2016 07:59:11


 **********************************************************************************************************************************
 LABEL *                                                                                 
  64 bit mpp version                                                                     DATE: 13-Dec-18          TIME: 13:21:42  
 **********************************************************************************************************************************

 SHA1:             b6b3a4772808bb2d43777f23454e145ddfe12dc3
 **********************************************************************************************************************************

 THRESHOLDS:

 ZERO    =  1.00D-12  ONEINT  =  1.00D-12  TWOINT  =  1.00D-11  PREFAC  =  1.00D-14  LOCALI  =  1.00D-09  EORDER  =  1.00D-04
 ENERGY  =  1.00D-08  ETEST   =  0.00D+00  EDENS   =  0.00D+00  THRDEDEF=  1.00D-06  GRADIENT=  1.00D-02  STEP    =  1.00D-03
 ORBITAL =  1.00D-05  CIVEC   =  1.00D-05  COEFF   =  1.00D-04  PRINTCI =  5.00D-02  PUNCHCI =  9.90D+01  OPTGRAD =  3.00D-04
 OPTENERG=  1.00D-06  OPTSTEP =  3.00D-04  THRGRAD =  1.00D-10  COMPRESS=  1.00D-11  VARMIN  =  1.00D-07  VARMAX  =  1.00D-03
 THRDOUB =  0.00D+00  THRDIV  =  1.00D-05  THRRED  =  1.00D-07  THRPSP  =  1.00D+00  THRDC   =  1.00D-10  THRCS   =  1.00D-10
 THRNRM  =  1.00D-08  THREQ   =  0.00D+00  THRDE   =  1.00D+00  THRREF  =  1.00D-05  SPARFAC =  1.00D+00  THRDLP  =  1.00D-07
 THRDIA  =  1.00D-10  THRDLS  =  1.00D-07  THRGPS  =  0.00D+00  THRKEX  =  0.00D+00  THRDIS  =  2.00D-01  THRVAR  =  1.00D-10
 THRLOC  =  1.00D-06  THRGAP  =  1.00D-06  THRLOCT = -1.00D+00  THRGAPT = -1.00D+00  THRORB  =  1.00D-06  THRMLTP =  0.00D+00
 THRCPQCI=  1.00D-10  KEXTA   =  0.00D+00  THRCOARS=  0.00D+00  SYMTOL  =  1.00D-06  GRADTOL =  1.00D-06  THROVL  =  1.00D-08
 THRORTH =  1.00D-08  GRID    =  1.00D-06  GRIDMAX =  1.00D-03  DTMAX   =  0.00D+00  THROCCDE=  1.00D-01  THROCCDE=  1.00D-01



 Variable memory set to  500000000 words,  buffer space   230000 words

 ZSYMEL=NOSYM
 ZUNIT=ANG
 

Geometry recognized as XYZ

 SETTING BASIS          =    CC-PVTZ


 Recomputing integrals since basis changed


 Using spherical harmonics

 Library entry H      S cc-pVTZ              selected for orbital group  1
 Library entry H      P cc-pVTZ              selected for orbital group  1
 Library entry H      D cc-pVTZ              selected for orbital group  1

1PROGRAM * SEWARD (Integral evaluation for generally contracted gaussian basis sets)     Author: Roland Lindh, 1990

 Geometry written to block  1 of record 700


 Point group  C1  



 ATOMIC COORDINATES

 NR  ATOM    CHARGE       X              Y              Z

   1  H       1.00  -10.849959195    6.640194172   -0.408359202
   2  H       1.00   -9.585572025    6.227235235   -0.552706823

 Bond lengths in Bohr (Angstrom)

 1-2  1.337926096
     ( 0.708000000)

 NUCLEAR CHARGE:                    2
 NUMBER OF PRIMITIVE AOS:          34
 NUMBER OF SYMMETRY AOS:           32
 NUMBER OF CONTRACTIONS:           28   (  28A   )
 NUMBER OF CORE ORBITALS:           0   (   0A   )
 NUMBER OF VALENCE ORBITALS:        2   (   2A   )


 NUCLEAR REPULSION ENERGY    0.74742544

 Eigenvalues of metric

         1 0.145E-02 0.566E-02 0.676E-02 0.408E-01 0.888E-01 0.888E-01 0.131E+00 0.209E+00


 Contracted 2-electron integrals neglected if value below      1.0D-12
 AO integral compression algorithm  1   Integral accuracy      1.0D-12

     1.049 MB (compressed) written to integral file (100.0%)

     Node minimum: 0.262 MB, node maximum: 0.524 MB


 NUMBER OF SORTED TWO-ELECTRON INTEGRALS:      27540.     BUFFER LENGTH:  32768
 NUMBER OF SEGMENTS:   1  SEGMENT LENGTH:      27540      RECORD LENGTH: 524288

 Memory used in sort:       0.58 MW

 SORT1 READ      119167. AND WROTE       24270. INTEGRALS IN      1 RECORDS. CPU TIME:     0.02 SEC, REAL TIME:     0.04 SEC
 SORT2 READ       73043. AND WROTE       82621. INTEGRALS IN      3 RECORDS. CPU TIME:     0.01 SEC, REAL TIME:     0.02 SEC

 Node minimum:       27405.  Node maximum:       27676. integrals

 OPERATOR DM      FOR CENTER  0  COORDINATES:    0.000000    0.000000    0.000000


 **********************************************************************************************************************************
 DATASETS  * FILE   NREC   LENGTH (MB)   RECORD NAMES
              1      18       19.10       500      610      700      900      950      970     1000      129      960     1100   
                                          VAR    BASINP    GEOM    SYMINP    ZMAT    AOBASIS   BASIS     P2S    ABASIS      S 
                                         1400     1410     1200     1210     1080     1600     1650     1700   
                                           T        V       H0       H01     AOSYM     SMH    MOLCAS    OPER   

 PROGRAMS   *        TOTAL       INT
 CPU TIMES  *         0.58      0.31
 REAL TIME  *         1.10 SEC
 DISK USED  *        13.15 MB      
 GA USED    *         0.00 MB       (max)       0.00 MB       (current)
 **********************************************************************************************************************************

1PROGRAM * RHF-SCF (CLOSED SHELL)       Authors: W. Meyer, H.-J. Werner


 NUMBER OF ELECTRONS:       1+    1-    SPACE SYMMETRY=1    SPIN SYMMETRY: Singlet 
 CONVERGENCE THRESHOLDS:    1.00E-06 (Density)    1.00E-09 (Energy)
 MAX. NUMBER OF ITERATIONS:       60
 INTERPOLATION TYPE:            DIIS
 INTERPOLATION STEPS:              2 (START)      1 (STEP)
 LEVEL SHIFTS:                  0.00 (CLOSED)  0.00 (OPEN) 



 Orbital guess generated from atomic densities. Full valence occupancy:    2

 Molecular orbital dump at record        2100.2

 Initial occupancy:   1

 ITERATION    DDIFF          GRAD             ENERGY        2-EL.EN.            DIPOLE MOMENTS         DIIS   ORB.
    1      0.000D+00      0.000D+00        -1.13110485      1.303022   -0.00000    0.00000   -0.00000    0    start
    2      0.000D+00      0.499D-02        -1.13241549      1.334279   -0.00000    0.00000   -0.00000    1    diag
    3      0.793D-02      0.798D-03        -1.13246000      1.340290   -0.00000    0.00000   -0.00000    2    diag
    4      0.103D-02      0.907D-04        -1.13246044      1.340747   -0.00000    0.00000   -0.00000    3    diag
    5      0.145D-03      0.300D-05        -1.13246044      1.340749   -0.00000    0.00000   -0.00000    4    diag
    6      0.328D-05      0.166D-06        -1.13246044      1.340750   -0.00000    0.00000   -0.00000    5    diag
    7      0.365D-06      0.117D-07        -1.13246044      1.340750   -0.00000    0.00000   -0.00000    0    orth

 Final occupancy:   1

 !RHF STATE 1.1 Energy                 -1.132460441893
 Nuclear energy                         0.74742544
 One-electron energy                   -2.55026077
 Two-electron energy                    0.67037489
 Virial quotient                       -0.97787309
 !RHF STATE 1.1 Dipole moment          -0.00000000     0.00000000    -0.00000000
 Dipole moment /Debye                  -0.00000000     0.00000000    -0.00000000

 Orbital energies:

         1.1          2.1          3.1
     -0.604755     0.171624     0.302012

 HOMO      1.1    -0.604755 =     -16.4562eV
 LUMO      2.1     0.171624 =       4.6701eV
 LUMO-HOMO         0.776380 =      21.1264eV


 **********************************************************************************************************************************
 DATASETS  * FILE   NREC   LENGTH (MB)   RECORD NAMES
              1      18       19.10       500      610      700      900      950      970     1000      129      960     1100   
                                          VAR    BASINP    GEOM    SYMINP    ZMAT    AOBASIS   BASIS     P2S    ABASIS      S 
                                         1400     1410     1200     1210     1080     1600     1650     1700   
                                           T        V       H0       H01     AOSYM     SMH    MOLCAS    OPER   

              2       4        0.40       700     1000      520     2100   
                                         GEOM     BASIS   MCVARS     RHF  

 PROGRAMS   *        TOTAL       RHF       INT
 CPU TIMES  *         0.62      0.04      0.31
 REAL TIME  *         1.21 SEC
 DISK USED  *        71.90 MB      
 SF USED    *         0.00 MB      
 GA USED    *         0.00 MB       (max)       0.00 MB       (current)
 **********************************************************************************************************************************


1PROGRAM * CCSD (Closed-shell coupled cluster)     Authors: C. Hampel, H.-J. Werner, 1991, M. Deegan, P.J. Knowles, 1992


 Convergence thresholds:  THRVAR = 1.00D-12  THRDEN = 1.00D-08

 CCSD(T)     terms to be evaluated (factor= 1.000)


 Number of closed-shell orbitals:   1 (   1 )
 Number of external orbitals:      27 (  27 )

 Molecular orbitals read from record     2100.2  Type=RHF/CANONICAL (state 1.1)

 Number of N-1 electron functions:               1
 Number of N-2 electron functions:               1
 Number of singly external CSFs:                27
 Number of doubly external CSFs:               378
 Total number of CSFs:                         406

 Length of J-op  integral file:               0.00 MB
 Length of K-op  integral file:               0.06 MB
 Length of 3-ext integral record:             0.00 MB

 Integral transformation finished. Total CPU:   0.00 sec, npass=  1  Memory used:   0.10 MW

 Reference energy:                     -1.13246044

 MP2 singlet pair energy:              -0.03156394
 MP2 triplet pair energy:               0.00000000
 MP2 correlation energy:               -0.03156394
 MP2 total energy:                     -1.16402438

 SCS-MP2 correlation energy:           -0.03787673   (PS=  1.200000  PT=  0.333333)
 SCS-MP2 total energy:                 -1.17033717

 ITER.      SQ.NORM     CORR.ENERGY   TOTAL ENERGY   ENERGY CHANGE        DEN1      VAR(S)    VAR(P)  DIIS     TIME  TIME/IT
   1      1.01408117    -0.03823054    -1.17069098    -0.00666660    -0.00482569  0.35D-04  0.47D-03  1  1     0.05     0.00
   2      1.01689354    -0.03901358    -1.17147403    -0.00078305    -0.00245543  0.56D-06  0.94D-05  2  2     0.06     0.00
   3      1.01719075    -0.03901590    -1.17147634    -0.00000231    -0.00015868  0.98D-07  0.34D-06  3  3     0.06     0.00
   4      1.01723017    -0.03902032    -1.17148076    -0.00000442    -0.00001437  0.25D-08  0.74D-08  4  4     0.06     0.00
   5      1.01723345    -0.03901942    -1.17147987     0.00000089    -0.00000147  0.19D-09  0.80D-10  5  5     0.06     0.00
   6      1.01723334    -0.03901952    -1.17147996    -0.00000009     0.00000008  0.11D-10  0.26D-11  6  6     0.07     0.00
   7      1.01723329    -0.03901951    -1.17147995     0.00000001    -0.00000000  0.23D-12  0.16D-12  6  1     0.07     0.00
   8      1.01723328    -0.03901951    -1.17147995     0.00000000     0.00000000  0.78D-15  0.57D-14  6  2     0.08     0.00

 Norm of t1 vector:      0.01012847      S-energy:     0.00000000      T1 diagnostic:  0.00506424
                                                                       D1 diagnostic:  0.00716191

 Doubles amplitudes (print threshold =  0.500E-01):

         I         J         SYM. A    SYM. B    A         B      T(IJ, AB)

         1         1         1         1         3         3     -0.05454038


 RESULTS
 =======

  Reference energy                     -1.132460441893
  CCSD singlet pair energy             -0.039019508424
  CCSD triplet pair energy              0.000000000000
  CCSD correlation energy              -0.039019508245

  Triples (T) contribution              0.000000000000
  Total correlation energy             -0.039019508245

  CCSD total energy                    -1.171479950138
 !CCSD(T) total energy                 -1.171479950138

 Timing summary (sec):

 STEP                 CPU(USER)    SYS     CPU(TOT)    WALL
 Transformation          0.04      0.00      0.04      0.08
 CCSD iterations         0.04      0.01      0.05      0.06

 Program statistics:

 Available memory in ccsd:               499999896
 Min. memory needed in ccsd:                 11905
 Max. memory used in ccsd:                   11905
 Max. memory used in cckext:                 37844 ( 8 integral passes)



 **********************************************************************************************************************************
 DATASETS  * FILE   NREC   LENGTH (MB)   RECORD NAMES
              1      19       19.21       500      610      700      900      950      970     1000      129      960     1100   
                                          VAR    BASINP    GEOM    SYMINP    ZMAT    AOBASIS   BASIS     P2S    ABASIS      S 
                                         1400     1410     1200     1210     1080     1600     1650     1700     1380   
                                           T        V       H0       H01     AOSYM     SMH    MOLCAS    OPER     JKOP   

              2       4        0.40       700     1000      520     2100   
                                         GEOM     BASIS   MCVARS     RHF  

 PROGRAMS   *        TOTAL   CCSD(T)       RHF       INT
 CPU TIMES  *         0.74      0.10      0.04      0.31
 REAL TIME  *         1.40 SEC
 DISK USED  *        72.04 MB      
 SF USED    *         0.21 MB      
 GA USED    *         0.00 MB       (max)       0.00 MB       (current)
 **********************************************************************************************************************************


 PROGRAM * OPT (Geometry optimization)     Authors: F. Eckert and H.-J. Werner


 BFGS update of hessian

 Running default procedure: RHF-SCF000  CCSD(T)

 Geometry optimization using default procedure for command CCSD(T)

 Geometry written to block  1 of record 700
 

 Generated   1 symmetrical displacements

 Number of displacements for numerical gradient:      2

 Starting numerical gradient for CCSD(T)
 Starting task   1   Incrementing displacement  1 by  1.   CPU=    0.00 sec, Elapsed=    0.00 sec


 Recomputing integrals since geometry changed

1PROGRAM * SEWARD (Integral evaluation for generally contracted gaussian basis sets)     Author: Roland Lindh, 1990

 Geometry written to block  1 of record 700


 Point group  C1  



 ATOMIC COORDINATES

 NR  ATOM    CHARGE       X              Y              Z

   1  H       1.00  -10.843276788    6.638011644   -0.409122093
   2  H       1.00   -9.592254432    6.229417762   -0.551943932

 Bond lengths in Bohr (Angstrom)

 1-2  1.323783960
     ( 0.700516304)

 NUCLEAR CHARGE:                    2
 NUMBER OF PRIMITIVE AOS:          34
 NUMBER OF SYMMETRY AOS:           32
 NUMBER OF CONTRACTIONS:           28   (  28A   )
 NUMBER OF CORE ORBITALS:           0   (   0A   )
 NUMBER OF VALENCE ORBITALS:        2   (   2A   )


 NUCLEAR REPULSION ENERGY    0.75541027

 Eigenvalues of metric

         1 0.138E-02 0.538E-02 0.661E-02 0.404E-01 0.859E-01 0.859E-01 0.130E+00 0.204E+00


 Contracted 2-electron integrals neglected if value below      1.0D-12
 AO integral compression algorithm  1   Integral accuracy      1.0D-12

     1.049 MB (compressed) written to integral file (100.0%)

     Node minimum: 0.262 MB, node maximum: 0.524 MB


 NUMBER OF SORTED TWO-ELECTRON INTEGRALS:      27540.     BUFFER LENGTH:  32768
 NUMBER OF SEGMENTS:   1  SEGMENT LENGTH:      27540      RECORD LENGTH: 524288

 Memory used in sort:       0.58 MW

 SORT1 READ      119167. AND WROTE       24270. INTEGRALS IN      1 RECORDS. CPU TIME:     0.02 SEC, REAL TIME:     0.02 SEC
 SORT2 READ       73043. AND WROTE       82621. INTEGRALS IN      6 RECORDS. CPU TIME:     0.01 SEC, REAL TIME:     0.02 SEC

 Node minimum:       27405.  Node maximum:       27676. integrals

 OPERATOR DM      FOR CENTER  0  COORDINATES:    0.000000    0.000000    0.000000
1PROGRAM * RHF-SCF (CLOSED SHELL)       Authors: W. Meyer, H.-J. Werner


 NUMBER OF ELECTRONS:       1+    1-    SPACE SYMMETRY=1    SPIN SYMMETRY: Singlet 
 CONVERGENCE THRESHOLDS:    1.00E-07 (Density)    1.00E-09 (Energy)
 MAX. NUMBER OF ITERATIONS:       60
 INTERPOLATION TYPE:            DIIS
 INTERPOLATION STEPS:              2 (START)      1 (STEP)
 LEVEL SHIFTS:                  0.00 (CLOSED)  0.00 (OPEN) 

 Number of closed-shell orbitals:    1 (   1 )


 Molecular orbitals read from record     2100.2  Type=RHF/CANONICAL (state 1.1)

 Molecular orbital dump at record        2100.1

 ITERATION    DDIFF          GRAD             ENERGY        2-EL.EN.            DIPOLE MOMENTS         DIIS   ORB.
    1      0.000D+00      0.000D+00        -1.13209311      1.343380   -0.00000    0.00000   -0.00000    0    start
    2      0.000D+00      0.605D-03        -1.13210365      1.345894   -0.00000    0.00000   -0.00000    1    diag
    3      0.149D-02      0.723D-04        -1.13210388      1.346314   -0.00000    0.00000   -0.00000    2    diag
    4      0.180D-03      0.626D-05        -1.13210388      1.346347   -0.00000    0.00000   -0.00000    3    diag
    5      0.896D-05      0.189D-06        -1.13210388      1.346348   -0.00000    0.00000   -0.00000    4    diag
    6      0.237D-06      0.581D-08        -1.13210388      1.346348   -0.00000    0.00000   -0.00000    5    diag
    7      0.507D-08      0.221D-09        -1.13210388      1.346348   -0.00000    0.00000   -0.00000    0    orth

 Final occupancy:   1

 !RHF STATE 1.1 Energy                 -1.132103878711
 Nuclear energy                         0.75541027
 One-electron energy                   -2.56068800
 Two-electron energy                    0.67317385
 Virial quotient                       -0.97059292
 !RHF STATE 1.1 Dipole moment          -0.00000000     0.00000000    -0.00000000
 Dipole moment /Debye                  -0.00000000     0.00000000    -0.00000000

 Orbital energies:

         1.1          2.1          3.1
     -0.607170     0.172610     0.301309

 HOMO      1.1    -0.607170 =     -16.5219eV
 LUMO      2.1     0.172610 =       4.6969eV
 LUMO-HOMO         0.779780 =      21.2189eV


 **********************************************************************************************************************************
 DATASETS  * FILE   NREC   LENGTH (MB)   RECORD NAMES
              1      19       19.25       500      610      700      900      950      970     1000      129      960     1100   
                                          VAR    BASINP    GEOM    SYMINP    ZMAT    AOBASIS   BASIS     P2S    ABASIS      S 
                                         1400     1410     1200     1210     1080     1600     1650     1700     2100   
                                           T        V       H0       H01     AOSYM     SMH    MOLCAS    OPER      RHF  

              2       5        0.42       700     1000      520     2100     5600   
                                         GEOM     BASIS   MCVARS     RHF     GINFO   

 PROGRAMS   *        TOTAL       RHF   CCSD(T)       RHF       INT
 CPU TIMES  *         1.38      0.26      0.10      0.04      0.31
 REAL TIME  *         2.98 SEC
 DISK USED  *        72.40 MB      
 SF USED    *         0.21 MB      
 GA USED    *         0.00 MB       (max)       0.00 MB       (current)
 **********************************************************************************************************************************


1PROGRAM * CCSD (Closed-shell coupled cluster)     Authors: C. Hampel, H.-J. Werner, 1991, M. Deegan, P.J. Knowles, 1992


 Convergence thresholds:  THRVAR = 1.00D-12  THRDEN = 1.00D-08

 CCSD(T)     terms to be evaluated (factor= 1.000)


 Number of closed-shell orbitals:   1 (   1 )
 Number of external orbitals:      27 (  27 )

 Molecular orbitals read from record     2100.1  Type=RHF/CANONICAL (state 1.1)

 Number of N-1 electron functions:               1
 Number of N-2 electron functions:               1
 Number of singly external CSFs:                27
 Number of doubly external CSFs:               378
 Total number of CSFs:                         406

 Length of J-op  integral file:               0.00 MB
 Length of K-op  integral file:               0.06 MB
 Length of 3-ext integral record:             0.00 MB

 Integral transformation finished. Total CPU:   0.01 sec, npass=  1  Memory used:   0.10 MW

 Reference energy:                     -1.13210388

 MP2 singlet pair energy:              -0.03153984
 MP2 triplet pair energy:               0.00000000
 MP2 correlation energy:               -0.03153984
 MP2 total energy:                     -1.16364371

 SCS-MP2 correlation energy:           -0.03784780   (PS=  1.200000  PT=  0.333333)
 SCS-MP2 total energy:                 -1.16995168

 ITER.      SQ.NORM     CORR.ENERGY   TOTAL ENERGY   ENERGY CHANGE        DEN1      VAR(S)    VAR(P)  DIIS     TIME  TIME/IT
   1      1.01394350    -0.03817131    -1.17027519    -0.00663147    -0.00481020  0.34D-04  0.47D-03  1  1     0.02     0.00
   2      1.01669171    -0.03893856    -1.17104244    -0.00076725    -0.00242582  0.52D-06  0.90D-05  2  2     0.02     0.00
   3      1.01697585    -0.03894060    -1.17104448    -0.00000204    -0.00015299  0.94D-07  0.32D-06  3  3     0.02     0.00
   4      1.01701348    -0.03894486    -1.17104874    -0.00000426    -0.00001394  0.24D-08  0.70D-08  4  4     0.02     0.00
   5      1.01701651    -0.03894399    -1.17104786     0.00000087    -0.00000136  0.18D-09  0.77D-10  5  5     0.03     0.00
   6      1.01701639    -0.03894408    -1.17104796    -0.00000009     0.00000008  0.10D-10  0.24D-11  6  6     0.04     0.00
   7      1.01701635    -0.03894407    -1.17104795     0.00000001    -0.00000000  0.23D-12  0.15D-12  6  1     0.04     0.00
   8      1.01701634    -0.03894407    -1.17104795     0.00000000     0.00000000  0.74D-15  0.53D-14  6  2     0.04     0.00
   9      1.01701633    -0.03894407    -1.17104795    -0.00000000     0.00000000  0.55D-16  0.51D-16  6  3     0.05     0.00

 Norm of t1 vector:      0.00988800      S-energy:     0.00000000      T1 diagnostic:  0.00494400
                                                                       D1 diagnostic:  0.00699187

 Doubles amplitudes (print threshold =  0.500E-01):

         I         J         SYM. A    SYM. B    A         B      T(IJ, AB)

         1         1         1         1         3         3     -0.05409307


 RESULTS
 =======

  Reference energy                     -1.132103878711
  CCSD singlet pair energy             -0.038944069327
  CCSD triplet pair energy              0.000000000000
  CCSD correlation energy              -0.038944069286

  Triples (T) contribution              0.000000000000
  Total correlation energy             -0.038944069286

  CCSD total energy                    -1.171047947996
 !CCSD(T) total energy                 -1.171047947996

 Timing summary (sec):

 STEP                 CPU(USER)    SYS     CPU(TOT)    WALL
 Transformation          0.01      0.00      0.01      0.01
 CCSD iterations         0.04      0.01      0.05      0.03

 Program statistics:

 Available memory in ccsd:               499998928
 Min. memory needed in ccsd:                 11905
 Max. memory used in ccsd:                   11905
 Max. memory used in cckext:                 37844 ( 9 integral passes)



 **********************************************************************************************************************************
 DATASETS  * FILE   NREC   LENGTH (MB)   RECORD NAMES
              1      20       19.35       500      610      700      900      950      970     1000      129      960     1100   
                                          VAR    BASINP    GEOM    SYMINP    ZMAT    AOBASIS   BASIS     P2S    ABASIS      S 
                                         1400     1410     1200     1210     1080     1600     1650     1700     2100     1380   
                                           T        V       H0       H01     AOSYM     SMH    MOLCAS    OPER      RHF     JKOP   

              2       5        0.42       700     1000      520     2100     5600   
                                         GEOM     BASIS   MCVARS     RHF     GINFO   

 PROGRAMS   *        TOTAL   CCSD(T)   CCSD(T)       RHF       INT
 CPU TIMES  *         1.46      0.07      0.10      0.04      0.31
 REAL TIME  *         3.07 SEC
 DISK USED  *        72.54 MB      
 SF USED    *         0.21 MB      
 GA USED    *         0.00 MB       (max)       0.00 MB       (current)
 **********************************************************************************************************************************
 Starting task   2   Incrementing displacement  1 by -1.   CPU=    0.46 sec, Elapsed=    0.63 sec


 Recomputing integrals since geometry changed

1PROGRAM * SEWARD (Integral evaluation for generally contracted gaussian basis sets)     Author: Roland Lindh, 1990

 Geometry written to block  1 of record 700


 Point group  C1  



 ATOMIC COORDINATES

 NR  ATOM    CHARGE       X              Y              Z

   1  H       1.00  -10.856641603    6.642376700   -0.407596311
   2  H       1.00   -9.578889617    6.225052707   -0.553469714

 Bond lengths in Bohr (Angstrom)

 1-2  1.352068231
     ( 0.715483696)

 NUCLEAR CHARGE:                    2
 NUMBER OF PRIMITIVE AOS:          34
 NUMBER OF SYMMETRY AOS:           32
 NUMBER OF CONTRACTIONS:           28   (  28A   )
 NUMBER OF CORE ORBITALS:           0   (   0A   )
 NUMBER OF VALENCE ORBITALS:        2   (   2A   )


 NUCLEAR REPULSION ENERGY    0.73960764

 Eigenvalues of metric

         1 0.152E-02 0.595E-02 0.690E-02 0.413E-01 0.918E-01 0.918E-01 0.131E+00 0.213E+00


 Contracted 2-electron integrals neglected if value below      1.0D-12
 AO integral compression algorithm  1   Integral accuracy      1.0D-12

     1.049 MB (compressed) written to integral file (100.0%)

     Node minimum: 0.262 MB, node maximum: 0.524 MB


 NUMBER OF SORTED TWO-ELECTRON INTEGRALS:      27540.     BUFFER LENGTH:  32768
 NUMBER OF SEGMENTS:   1  SEGMENT LENGTH:      27540      RECORD LENGTH: 524288

 Memory used in sort:       0.58 MW

 SORT1 READ      119167. AND WROTE       24270. INTEGRALS IN      1 RECORDS. CPU TIME:     0.01 SEC, REAL TIME:     0.02 SEC
 SORT2 READ       73043. AND WROTE       82621. INTEGRALS IN      3 RECORDS. CPU TIME:     0.00 SEC, REAL TIME:     0.01 SEC

 Node minimum:       27405.  Node maximum:       27676. integrals

 OPERATOR DM      FOR CENTER  0  COORDINATES:    0.000000    0.000000    0.000000
1PROGRAM * RHF-SCF (CLOSED SHELL)       Authors: W. Meyer, H.-J. Werner


 NUMBER OF ELECTRONS:       1+    1-    SPACE SYMMETRY=1    SPIN SYMMETRY: Singlet 
 CONVERGENCE THRESHOLDS:    1.00E-07 (Density)    1.00E-09 (Energy)
 MAX. NUMBER OF ITERATIONS:       60
 INTERPOLATION TYPE:            DIIS
 INTERPOLATION STEPS:              2 (START)      1 (STEP)
 LEVEL SHIFTS:                  0.00 (CLOSED)  0.00 (OPEN) 

 Number of closed-shell orbitals:    1 (   1 )


 Molecular orbitals read from record     2100.2  Type=RHF/CANONICAL (state 1.1)

 Molecular orbital dump at record        2100.1

 ITERATION    DDIFF          GRAD             ENERGY        2-EL.EN.            DIPOLE MOMENTS         DIIS   ORB.
    1      0.000D+00      0.000D+00        -1.13271159      1.338114   -0.00000    0.00000   -0.00000    0    start
    2      0.000D+00      0.599D-03        -1.13272192      1.335651   -0.00000    0.00000   -0.00000    1    diag
    3      0.148D-02      0.721D-04        -1.13272214      1.335237   -0.00000    0.00000   -0.00000    2    diag
    4      0.178D-03      0.624D-05        -1.13272215      1.335204   -0.00000    0.00000   -0.00000    3    diag
    5      0.891D-05      0.187D-06        -1.13272215      1.335203   -0.00000    0.00000   -0.00000    4    diag
    6      0.232D-06      0.593D-08        -1.13272215      1.335203   -0.00000    0.00000   -0.00000    5    diag
    7      0.447D-08      0.233D-09        -1.13272215      1.335203   -0.00000    0.00000   -0.00000    0    orth

 Final occupancy:   1

 !RHF STATE 1.1 Energy                 -1.132722145782
 Nuclear energy                         0.73960764
 One-electron energy                   -2.53993148
 Two-electron energy                    0.66760169
 Virial quotient                       -0.98506134
 !RHF STATE 1.1 Dipole moment          -0.00000000     0.00000000    -0.00000000
 Dipole moment /Debye                  -0.00000000     0.00000000    -0.00000000

 Orbital energies:

         1.1          2.1          3.1
     -0.602364     0.170625     0.302713

 HOMO      1.1    -0.602364 =     -16.3912eV
 LUMO      2.1     0.170625 =       4.6429eV
 LUMO-HOMO         0.772989 =      21.0341eV


 **********************************************************************************************************************************
 DATASETS  * FILE   NREC   LENGTH (MB)   RECORD NAMES
              1      19       19.25       500      610      700      900      950      970     1000      129      960     1100   
                                          VAR    BASINP    GEOM    SYMINP    ZMAT    AOBASIS   BASIS     P2S    ABASIS      S 
                                         1400     1410     1200     1210     1080     1600     1650     1700     2100   
                                           T        V       H0       H01     AOSYM     SMH    MOLCAS    OPER      RHF  

              2       5        0.42       700     1000      520     2100     5600   
                                         GEOM     BASIS   MCVARS     RHF     GINFO   

 PROGRAMS   *        TOTAL       RHF   CCSD(T)       RHF       INT
 CPU TIMES  *         1.59      0.12      0.10      0.04      0.31
 REAL TIME  *         3.40 SEC
 DISK USED  *        72.66 MB      
 SF USED    *         0.21 MB      
 GA USED    *         0.00 MB       (max)       0.00 MB       (current)
 **********************************************************************************************************************************


1PROGRAM * CCSD (Closed-shell coupled cluster)     Authors: C. Hampel, H.-J. Werner, 1991, M. Deegan, P.J. Knowles, 1992


 Convergence thresholds:  THRVAR = 1.00D-12  THRDEN = 1.00D-08

 CCSD(T)     terms to be evaluated (factor= 1.000)


 Number of closed-shell orbitals:   1 (   1 )
 Number of external orbitals:      27 (  27 )

 Molecular orbitals read from record     2100.1  Type=RHF/CANONICAL (state 1.1)

 Number of N-1 electron functions:               1
 Number of N-2 electron functions:               1
 Number of singly external CSFs:                27
 Number of doubly external CSFs:               378
 Total number of CSFs:                         406

 Length of J-op  integral file:               0.00 MB
 Length of K-op  integral file:               0.06 MB
 Length of 3-ext integral record:             0.00 MB

 Integral transformation finished. Total CPU:   0.00 sec, npass=  1  Memory used:   0.10 MW

 Reference energy:                     -1.13272215

 MP2 singlet pair energy:              -0.03158882
 MP2 triplet pair energy:               0.00000000
 MP2 correlation energy:               -0.03158882
 MP2 total energy:                     -1.16431097

 SCS-MP2 correlation energy:           -0.03790659   (PS=  1.200000  PT=  0.333333)
 SCS-MP2 total energy:                 -1.17062873

 ITER.      SQ.NORM     CORR.ENERGY   TOTAL ENERGY   ENERGY CHANGE        DEN1      VAR(S)    VAR(P)  DIIS     TIME  TIME/IT
   1      1.01422089    -0.03829129    -1.17101344    -0.00670247    -0.00484155  0.37D-04  0.48D-03  1  1     0.01     0.00
   2      1.01709917    -0.03909054    -1.17181269    -0.00079925    -0.00248559  0.60D-06  0.99D-05  2  2     0.01     0.01
   3      1.01741009    -0.03909314    -1.17181529    -0.00000260    -0.00016461  0.10D-06  0.36D-06  3  3     0.02     0.00
   4      1.01745140    -0.03909773    -1.17181988    -0.00000459    -0.00001482  0.27D-08  0.79D-08  4  4     0.02     0.00
   5      1.01745494    -0.03909682    -1.17181896     0.00000092    -0.00000159  0.20D-09  0.84D-10  5  5     0.02     0.00
   6      1.01745482    -0.03909691    -1.17181906    -0.00000009     0.00000008  0.11D-10  0.27D-11  6  6     0.02     0.00
   7      1.01745477    -0.03909690    -1.17181905     0.00000001    -0.00000000  0.23D-12  0.17D-12  6  1     0.02     0.01
   8      1.01745476    -0.03909690    -1.17181905     0.00000000     0.00000000  0.83D-15  0.60D-14  6  2     0.02     0.00

 Norm of t1 vector:      0.01037198      S-energy:     0.00000000      T1 diagnostic:  0.00518599
                                                                       D1 diagnostic:  0.00733410

 Doubles amplitudes (print threshold =  0.500E-01):

         I         J         SYM. A    SYM. B    A         B      T(IJ, AB)

         1         1         1         1         3         3     -0.05497613


 RESULTS
 =======

  Reference energy                     -1.132722145782
  CCSD singlet pair energy             -0.039096901902
  CCSD triplet pair energy              0.000000000000
  CCSD correlation energy              -0.039096901832

  Triples (T) contribution              0.000000000000
  Total correlation energy             -0.039096901832

  CCSD total energy                    -1.171819047614
 !CCSD(T) total energy                 -1.171819047614

 Timing summary (sec):

 STEP                 CPU(USER)    SYS     CPU(TOT)    WALL
 CCSD iterations         0.03      0.00      0.03      0.05

 Program statistics:

 Available memory in ccsd:               499998928
 Min. memory needed in ccsd:                 11905
 Max. memory used in ccsd:                   11905
 Max. memory used in cckext:                 37844 ( 8 integral passes)



 **********************************************************************************************************************************
 DATASETS  * FILE   NREC   LENGTH (MB)   RECORD NAMES
              1      20       19.35       500      610      700      900      950      970     1000      129      960     1100   
                                          VAR    BASINP    GEOM    SYMINP    ZMAT    AOBASIS   BASIS     P2S    ABASIS      S 
                                         1400     1410     1200     1210     1080     1600     1650     1700     2100     1380   
                                           T        V       H0       H01     AOSYM     SMH    MOLCAS    OPER      RHF     JKOP   

              2       5        0.42       700     1000      520     2100     5600   
                                         GEOM     BASIS   MCVARS     RHF     GINFO   

 PROGRAMS   *        TOTAL   CCSD(T)   CCSD(T)       RHF       INT
 CPU TIMES  *         1.64      0.05      0.10      0.04      0.31
 REAL TIME  *         3.51 SEC
 DISK USED  *        72.66 MB      
 SF USED    *         0.21 MB      
 GA USED    *         0.00 MB       (max)       0.00 MB       (current)
 **********************************************************************************************************************************
 Numerical gradient completed. CPU-time:     0.67 sec, Elapsed:     1.06 sec

 Numerical gradient for CCSD(T)

 Total Energy            -1.17147995  Dipole moments:    0.000000    0.000000    0.000000

 Atom          dE/dx               dE/dy               dE/dz                  d2E/dx2             d2E/dy2             d2E/dz2
   1         0.025764009        -0.008414731        -0.002941325            0.000000000         0.000000000         0.000000000
   2        -0.025764009         0.008414731         0.002941325            0.000000000         0.000000000         0.000000000
 Reading points  1 to  1 from record 700.2,  wavefunction type=CCSD(T)         

 Making model hessian for cartesian coordinates
 No hessian update for point  1

 Entering Rational Function Geometry Optimization

 Singular transformation in ROTATE

 Optimization point  1

 Variable                      Last           Current        Next           Gradient       Hessian
 E(CCSD(T)) / Hartree        0.00000000    -1.17147995    -1.17227940
 GX1 / ANGSTROM              0.00000000    -5.74155115    -5.75619086     0.04868692    -0.00000000
 GY1 / ANGSTROM              0.00000000     3.51383943     3.51862088    -0.01590154    -0.00000000
 GZ1 / ANGSTROM              0.00000000    -0.21609438    -0.21442305    -0.00555830    -0.00000000
 GX2 / ANGSTROM              0.00000000    -5.07246627    -5.05782656    -0.04868692     0.00000000
 GY2 / ANGSTROM              0.00000000     3.29531097     3.29052953     0.01590154     0.00000000
 GZ2 / ANGSTROM              0.00000000    -0.29247986    -0.29415118     0.00555830     3.31997439
 Convergence:                0.00000000  (line search)     0.04139982     0.03855498  (total)

 Geometry written to block  2 of record 700


 Recomputing integrals since geometry changed

1PROGRAM * SEWARD (Integral evaluation for generally contracted gaussian basis sets)     Author: Roland Lindh, 1990

 Geometry written to block  2 of record 700


 Point group  C1  



 ATOMIC COORDINATES

 NR  ATOM    CHARGE       X              Y              Z

   1  H       1.00  -10.877624245    6.649229798   -0.405200847
   2  H       1.00   -9.557906975    6.218199609   -0.555865179

 Bond lengths in Bohr (Angstrom)

 1-2  1.396474289
     ( 0.738982369)

 NUCLEAR CHARGE:                    2
 NUMBER OF PRIMITIVE AOS:          34
 NUMBER OF SYMMETRY AOS:           32
 NUMBER OF CONTRACTIONS:           28   (  28A   )
 NUMBER OF CORE ORBITALS:           0   (   0A   )
 NUMBER OF VALENCE ORBITALS:        2   (   2A   )


 NUCLEAR REPULSION ENERGY    0.71608909

 Eigenvalues of metric

         1 0.174E-02 0.694E-02 0.738E-02 0.428E-01 0.101E+00 0.101E+00 0.134E+00 0.227E+00


 Contracted 2-electron integrals neglected if value below      1.0D-12
 AO integral compression algorithm  1   Integral accuracy      1.0D-12

     1.311 MB (compressed) written to integral file (100.0%)

     Node minimum: 0.262 MB, node maximum: 0.524 MB


 NUMBER OF SORTED TWO-ELECTRON INTEGRALS:      27540.     BUFFER LENGTH:  32768
 NUMBER OF SEGMENTS:   1  SEGMENT LENGTH:      27540      RECORD LENGTH: 524288

 Memory used in sort:       0.58 MW

 SORT1 READ      119167. AND WROTE       24270. INTEGRALS IN      1 RECORDS. CPU TIME:     0.00 SEC, REAL TIME:     0.01 SEC
 SORT2 READ       73043. AND WROTE       82621. INTEGRALS IN      3 RECORDS. CPU TIME:     0.00 SEC, REAL TIME:     0.01 SEC

 Node minimum:       27405.  Node maximum:       27676. integrals

 OPERATOR DM      FOR CENTER  0  COORDINATES:    0.000000    0.000000    0.000000
1PROGRAM * RHF-SCF (CLOSED SHELL)       Authors: W. Meyer, H.-J. Werner


 NUMBER OF ELECTRONS:       1+    1-    SPACE SYMMETRY=1    SPIN SYMMETRY: Singlet 
 CONVERGENCE THRESHOLDS:    1.00E-06 (Density)    1.00E-09 (Energy)
 MAX. NUMBER OF ITERATIONS:       60
 INTERPOLATION TYPE:            DIIS
 INTERPOLATION STEPS:              2 (START)      1 (STEP)
 LEVEL SHIFTS:                  0.00 (CLOSED)  0.00 (OPEN) 

 Number of closed-shell orbitals:    1 (   1 )


 Molecular orbitals read from record     2100.2  Type=RHF/CANONICAL (state 1.1)

 Molecular orbital dump at record        2100.2

 ITERATION    DDIFF          GRAD             ENERGY        2-EL.EN.            DIPOLE MOMENTS         DIIS   ORB.
    1      0.000D+00      0.000D+00        -1.13279982      1.329810   -0.00000    0.00000   -0.00000    0    start
    2      0.000D+00      0.245D-02        -1.13297114      1.319939   -0.00000    0.00000   -0.00000    1    diag
    3      0.600D-02      0.297D-03        -1.13297492      1.318253   -0.00000    0.00000   -0.00000    2    diag
    4      0.721D-03      0.257D-04        -1.13297496      1.318118   -0.00000    0.00000   -0.00000    3    diag
    5      0.365D-04      0.769D-06        -1.13297496      1.318116   -0.00000    0.00000   -0.00000    4    diag
    6      0.928D-06      0.254D-07        -1.13297496      1.318116   -0.00000    0.00000   -0.00000    0    orth

 Final occupancy:   1

 !RHF STATE 1.1 Energy                 -1.132974957235
 Nuclear energy                         0.71608909
 One-electron energy                   -2.50812219
 Two-electron energy                    0.65905815
 Virial quotient                       -1.00704946
 !RHF STATE 1.1 Dipole moment          -0.00000000     0.00000000    -0.00000000
 Dipole moment /Debye                  -0.00000000     0.00000000    -0.00000000

 Orbital energies:

         1.1          2.1          3.1
     -0.595003     0.167400     0.304906

 HOMO      1.1    -0.595003 =     -16.1909eV
 LUMO      2.1     0.167400 =       4.5552eV
 LUMO-HOMO         0.762403 =      20.7460eV


 **********************************************************************************************************************************
 DATASETS  * FILE   NREC   LENGTH (MB)   RECORD NAMES
              1      18       19.10       500      610      700      900      950      970     1000      129      960     1100   
                                          VAR    BASINP    GEOM    SYMINP    ZMAT    AOBASIS   BASIS     P2S    ABASIS      S 
                                         1400     1410     1200     1210     1080     1600     1650     1700   
                                           T        V       H0       H01     AOSYM     SMH    MOLCAS    OPER   

              2       5        0.42       700     1000      520     2100     5600   
                                         GEOM     BASIS   MCVARS     RHF     GINFO   

 PROGRAMS   *        TOTAL       RHF   CCSD(T)       RHF       INT
 CPU TIMES  *         1.81      0.17      0.10      0.04      0.31
 REAL TIME  *         3.78 SEC
 DISK USED  *        72.66 MB      
 SF USED    *         0.21 MB      
 GA USED    *         0.00 MB       (max)       0.00 MB       (current)
 **********************************************************************************************************************************


1PROGRAM * CCSD (Closed-shell coupled cluster)     Authors: C. Hampel, H.-J. Werner, 1991, M. Deegan, P.J. Knowles, 1992


 Convergence thresholds:  THRVAR = 1.00D-12  THRDEN = 1.00D-08

 CCSD(T)     terms to be evaluated (factor= 1.000)


 Number of closed-shell orbitals:   1 (   1 )
 Number of external orbitals:      27 (  27 )

 Molecular orbitals read from record     2100.2  Type=RHF/CANONICAL (state 1.1)

 Number of N-1 electron functions:               1
 Number of N-2 electron functions:               1
 Number of singly external CSFs:                27
 Number of doubly external CSFs:               378
 Total number of CSFs:                         406

 Length of J-op  integral file:               0.00 MB
 Length of K-op  integral file:               0.06 MB
 Length of 3-ext integral record:             0.00 MB

 Integral transformation finished. Total CPU:   0.02 sec, npass=  1  Memory used:   0.10 MW

 Reference energy:                     -1.13297496

 MP2 singlet pair energy:              -0.03167214
 MP2 triplet pair energy:               0.00000000
 MP2 correlation energy:               -0.03167214
 MP2 total energy:                     -1.16464709

 SCS-MP2 correlation energy:           -0.03800656   (PS=  1.200000  PT=  0.333333)
 SCS-MP2 total energy:                 -1.17098152

 ITER.      SQ.NORM     CORR.ENERGY   TOTAL ENERGY   ENERGY CHANGE        DEN1      VAR(S)    VAR(P)  DIIS     TIME  TIME/IT
   1      1.01467326    -0.03849211    -1.17146707    -0.00681997    -0.00489377  0.41D-04  0.51D-03  1  1     0.05     0.03
   2      1.01777023    -0.03934501    -1.17231996    -0.00085290    -0.00258392  0.74D-06  0.11D-04  2  2     0.12     0.05
   3      1.01812870    -0.03934864    -1.17232359    -0.00000363    -0.00018479  0.12D-06  0.42D-06  3  3     0.17     0.05
   4      1.01817655    -0.03935378    -1.17232874    -0.00000515    -0.00001634  0.32D-08  0.95D-08  4  4     0.19     0.04
   5      1.01818103    -0.03935280    -1.17232776     0.00000098    -0.00000201  0.24D-09  0.97D-10  5  5     0.20     0.04
   6      1.01818092    -0.03935289    -1.17232785    -0.00000009     0.00000009  0.12D-10  0.32D-11  6  6     0.21     0.03
   7      1.01818088    -0.03935289    -1.17232784     0.00000001    -0.00000000  0.24D-12  0.18D-12  6  1     0.21     0.03
   8      1.01818086    -0.03935289    -1.17232784     0.00000000     0.00000000  0.10D-14  0.73D-14  6  2     0.22     0.02

 Norm of t1 vector:      0.01115639      S-energy:     0.00000000      T1 diagnostic:  0.00557819
                                                                       D1 diagnostic:  0.00788876

 Doubles amplitudes (print threshold =  0.500E-01):

         I         J         SYM. A    SYM. B    A         B      T(IJ, AB)

         1         1         1         1         3         3     -0.05626778


 RESULTS
 =======

  Reference energy                     -1.132974957235
  CCSD singlet pair energy             -0.039352885949
  CCSD triplet pair energy              0.000000000000
  CCSD correlation energy              -0.039352885818

  Triples (T) contribution              0.000000000000
  Total correlation energy             -0.039352885818

  CCSD total energy                    -1.172327843053
 !CCSD(T) total energy                 -1.172327843053

 Timing summary (sec):

 STEP                 CPU(USER)    SYS     CPU(TOT)    WALL
 Transformation          0.02      0.00      0.02      0.03
 CCSD iterations         0.20      0.00      0.20      0.19

 Program statistics:

 Available memory in ccsd:               499998990
 Min. memory needed in ccsd:                 11905
 Max. memory used in ccsd:                   11905
 Max. memory used in cckext:                 37844 ( 8 integral passes)



 **********************************************************************************************************************************
 DATASETS  * FILE   NREC   LENGTH (MB)   RECORD NAMES
              1      19       19.21       500      610      700      900      950      970     1000      129      960     1100   
                                          VAR    BASINP    GEOM    SYMINP    ZMAT    AOBASIS   BASIS     P2S    ABASIS      S 
                                         1400     1410     1200     1210     1080     1600     1650     1700     1380   
                                           T        V       H0       H01     AOSYM     SMH    MOLCAS    OPER     JKOP   

              2       5        0.42       700     1000      520     2100     5600   
                                         GEOM     BASIS   MCVARS     RHF     GINFO   

 PROGRAMS   *        TOTAL   CCSD(T)   CCSD(T)       RHF       INT
 CPU TIMES  *         2.07      0.24      0.10      0.04      0.31
 REAL TIME  *         4.06 SEC
 DISK USED  *        72.66 MB      
 SF USED    *         0.21 MB      
 GA USED    *         0.00 MB       (max)       0.00 MB       (current)
 **********************************************************************************************************************************

 ITER.   ENERGY(OLD)    ENERGY(NEW)      DE          GRADMAX     GRADNORM    GRADRMS     STEPMAX     STEPLEN     STEPRMS   CPU-time
   1    -1.17147995    -1.17232784    -0.00084789  0.03855498  0.03855498  0.03855498  0.04139982  0.04139982  0.02927410      1.33

 Current geometry (xyz format, in Angstrom)

    2
 CCSD(T)/CC-PVTZ  ENERGY=-1.17232784
 H         -5.7561908595        3.5186208792       -0.2144230540
 H         -5.0578265551        3.2905295259       -0.2941511849

 **********************************************************************************************************************************
 

 Generated   1 symmetrical displacements

 Number of displacements for numerical gradient:      2

 Starting numerical gradient for CCSD(T)
 Starting task   1   Incrementing displacement  1 by  1.   CPU=    0.00 sec, Elapsed=    0.00 sec


 Recomputing integrals since geometry changed

1PROGRAM * SEWARD (Integral evaluation for generally contracted gaussian basis sets)     Author: Roland Lindh, 1990

 Geometry written to block  2 of record 700


 Point group  C1  



 ATOMIC COORDINATES

 NR  ATOM    CHARGE       X              Y              Z

   1  H       1.00  -10.870941838    6.647047270   -0.405963738
   2  H       1.00   -9.564589382    6.220382136   -0.555102288

 Bond lengths in Bohr (Angstrom)

 1-2  1.382332153
     ( 0.731498673)

 NUCLEAR CHARGE:                    2
 NUMBER OF PRIMITIVE AOS:          34
 NUMBER OF SYMMETRY AOS:           32
 NUMBER OF CONTRACTIONS:           28   (  28A   )
 NUMBER OF CORE ORBITALS:           0   (   0A   )
 NUMBER OF VALENCE ORBITALS:        2   (   2A   )


 NUCLEAR REPULSION ENERGY    0.72341513

 Eigenvalues of metric

         1 0.167E-02 0.661E-02 0.723E-02 0.423E-01 0.982E-01 0.982E-01 0.133E+00 0.223E+00


 Contracted 2-electron integrals neglected if value below      1.0D-12
 AO integral compression algorithm  1   Integral accuracy      1.0D-12

     1.311 MB (compressed) written to integral file (100.0%)

     Node minimum: 0.262 MB, node maximum: 0.524 MB


 NUMBER OF SORTED TWO-ELECTRON INTEGRALS:      27540.     BUFFER LENGTH:  32768
 NUMBER OF SEGMENTS:   1  SEGMENT LENGTH:      27540      RECORD LENGTH: 524288

 Memory used in sort:       0.58 MW

 SORT1 READ      119167. AND WROTE       24270. INTEGRALS IN      1 RECORDS. CPU TIME:     0.00 SEC, REAL TIME:     0.02 SEC
 SORT2 READ       73043. AND WROTE       82621. INTEGRALS IN      6 RECORDS. CPU TIME:     0.02 SEC, REAL TIME:     0.04 SEC

 Node minimum:       27405.  Node maximum:       27676. integrals

 OPERATOR DM      FOR CENTER  0  COORDINATES:    0.000000    0.000000    0.000000
1PROGRAM * RHF-SCF (CLOSED SHELL)       Authors: W. Meyer, H.-J. Werner


 NUMBER OF ELECTRONS:       1+    1-    SPACE SYMMETRY=1    SPIN SYMMETRY: Singlet 
 CONVERGENCE THRESHOLDS:    1.00E-07 (Density)    1.00E-09 (Energy)
 MAX. NUMBER OF ITERATIONS:       60
 INTERPOLATION TYPE:            DIIS
 INTERPOLATION STEPS:              2 (START)      1 (STEP)
 LEVEL SHIFTS:                  0.00 (CLOSED)  0.00 (OPEN) 

 Number of closed-shell orbitals:    1 (   1 )


 Molecular orbitals read from record     2100.2  Type=RHF/CANONICAL (state 1.1)

 Molecular orbital dump at record        2100.1

 ITERATION    DDIFF          GRAD             ENERGY        2-EL.EN.            DIPOLE MOMENTS         DIIS   ORB.
    1      0.000D+00      0.000D+00        -1.13297360      1.320693   -0.00000    0.00000   -0.00000    0    start
    2      0.000D+00      0.580D-03        -1.13298333      1.323067   -0.00000    0.00000   -0.00000    1    diag
    3      0.140D-02      0.700D-04        -1.13298355      1.323472   -0.00000    0.00000   -0.00000    2    diag
    4      0.170D-03      0.614D-05        -1.13298355      1.323504   -0.00000    0.00000   -0.00000    3    diag
    5      0.875D-05      0.182D-06        -1.13298355      1.323505   -0.00000    0.00000   -0.00000    4    diag
    6      0.217D-06      0.635D-08        -1.13298355      1.323505   -0.00000    0.00000   -0.00000    5    diag
    7      0.529D-08      0.238D-09        -1.13298355      1.323505   -0.00000    0.00000   -0.00000    0    orth

 Final occupancy:   1

 !RHF STATE 1.1 Energy                 -1.132983547957
 Nuclear energy                         0.72341513
 One-electron energy                   -2.51815101
 Two-electron energy                    0.66175233
 Virial quotient                       -1.00014134
 !RHF STATE 1.1 Dipole moment          -0.00000000     0.00000000    -0.00000000
 Dipole moment /Debye                  -0.00000000     0.00000000    -0.00000000

 Orbital energies:

         1.1          2.1          3.1
     -0.597323     0.168441     0.304209

 HOMO      1.1    -0.597323 =     -16.2540eV
 LUMO      2.1     0.168441 =       4.5835eV
 LUMO-HOMO         0.765764 =      20.8375eV


 **********************************************************************************************************************************
 DATASETS  * FILE   NREC   LENGTH (MB)   RECORD NAMES
              1      19       19.25       500      610      700      900      950      970     1000      129      960     1100   
                                          VAR    BASINP    GEOM    SYMINP    ZMAT    AOBASIS   BASIS     P2S    ABASIS      S 
                                         1400     1410     1200     1210     1080     1600     1650     1700     2100   
                                           T        V       H0       H01     AOSYM     SMH    MOLCAS    OPER      RHF  

              2       5        0.42       700     1000      520     2100     5600   
                                         GEOM     BASIS   MCVARS     RHF     GINFO   

 PROGRAMS   *        TOTAL       RHF   CCSD(T)       RHF       INT
 CPU TIMES  *         2.72      0.33      0.10      0.04      0.31
 REAL TIME  *         4.93 SEC
 DISK USED  *        72.66 MB      
 SF USED    *         0.21 MB      
 GA USED    *         0.00 MB       (max)       0.00 MB       (current)
 **********************************************************************************************************************************


1PROGRAM * CCSD (Closed-shell coupled cluster)     Authors: C. Hampel, H.-J. Werner, 1991, M. Deegan, P.J. Knowles, 1992


 Convergence thresholds:  THRVAR = 1.00D-12  THRDEN = 1.00D-08

 CCSD(T)     terms to be evaluated (factor= 1.000)


 Number of closed-shell orbitals:   1 (   1 )
 Number of external orbitals:      27 (  27 )

 Molecular orbitals read from record     2100.1  Type=RHF/CANONICAL (state 1.1)

 Number of N-1 electron functions:               1
 Number of N-2 electron functions:               1
 Number of singly external CSFs:                27
 Number of doubly external CSFs:               378
 Total number of CSFs:                         406

 Length of J-op  integral file:               0.00 MB
 Length of K-op  integral file:               0.06 MB
 Length of 3-ext integral record:             0.00 MB

 Integral transformation finished. Total CPU:   0.03 sec, npass=  1  Memory used:   0.10 MW

 Reference energy:                     -1.13298355

 MP2 singlet pair energy:              -0.03164474
 MP2 triplet pair energy:               0.00000000
 MP2 correlation energy:               -0.03164474
 MP2 total energy:                     -1.16462829

 SCS-MP2 correlation energy:           -0.03797369   (PS=  1.200000  PT=  0.333333)
 SCS-MP2 total energy:                 -1.17095723

 ITER.      SQ.NORM     CORR.ENERGY   TOTAL ENERGY   ENERGY CHANGE        DEN1      VAR(S)    VAR(P)  DIIS     TIME  TIME/IT
   1      1.01452692    -0.03842648    -1.17141003    -0.00678174    -0.00487674  0.39D-04  0.50D-03  1  1     0.04     0.01
   2      1.01755226    -0.03926183    -1.17224538    -0.00083535    -0.00255201  0.69D-06  0.11D-04  2  2     0.12     0.08
   3      1.01789481    -0.03926511    -1.17224866    -0.00000328    -0.00017809  0.11D-06  0.40D-06  3  3     0.14     0.07
   4      1.01794046    -0.03927008    -1.17225362    -0.00000496    -0.00001584  0.30D-08  0.90D-08  4  4     0.15     0.05
   5      1.01794463    -0.03926912    -1.17225266     0.00000096    -0.00000187  0.23D-09  0.93D-10  5  5     0.16     0.04
   6      1.01794452    -0.03926921    -1.17225276    -0.00000009     0.00000009  0.12D-10  0.30D-11  6  6     0.18     0.04
   7      1.01794447    -0.03926920    -1.17225275     0.00000001    -0.00000000  0.24D-12  0.18D-12  6  1     0.18     0.03
   8      1.01794446    -0.03926920    -1.17225275     0.00000000     0.00000000  0.94D-15  0.69D-14  6  2     0.20     0.03

 Norm of t1 vector:      0.01090326      S-energy:     0.00000000      T1 diagnostic:  0.00545163
                                                                       D1 diagnostic:  0.00770977

 Doubles amplitudes (print threshold =  0.500E-01):

         I         J         SYM. A    SYM. B    A         B      T(IJ, AB)

         1         1         1         1         3         3     -0.05586918


 RESULTS
 =======

  Reference energy                     -1.132983547957
  CCSD singlet pair energy             -0.039269200218
  CCSD triplet pair energy              0.000000000000
  CCSD correlation energy              -0.039269200158

  Triples (T) contribution              0.000000000000
  Total correlation energy             -0.039269200158

  CCSD total energy                    -1.172252748114
 !CCSD(T) total energy                 -1.172252748114

 Timing summary (sec):

 STEP                 CPU(USER)    SYS     CPU(TOT)    WALL
 Transformation          0.03      0.00      0.03      0.02
 CCSD iterations         0.17      0.00      0.17      0.27

 Program statistics:

 Available memory in ccsd:               499998928
 Min. memory needed in ccsd:                 11905
 Max. memory used in ccsd:                   11905
 Max. memory used in cckext:                 37844 ( 8 integral passes)



 **********************************************************************************************************************************
 DATASETS  * FILE   NREC   LENGTH (MB)   RECORD NAMES
              1      20       19.35       500      610      700      900      950      970     1000      129      960     1100   
                                          VAR    BASINP    GEOM    SYMINP    ZMAT    AOBASIS   BASIS     P2S    ABASIS      S 
                                         1400     1410     1200     1210     1080     1600     1650     1700     2100     1380   
                                           T        V       H0       H01     AOSYM     SMH    MOLCAS    OPER      RHF     JKOP   

              2       5        0.42       700     1000      520     2100     5600   
                                         GEOM     BASIS   MCVARS     RHF     GINFO   

 PROGRAMS   *        TOTAL   CCSD(T)   CCSD(T)       RHF       INT
 CPU TIMES  *         2.97      0.22      0.10      0.04      0.31
 REAL TIME  *         5.28 SEC
 DISK USED  *        72.66 MB      
 SF USED    *         0.21 MB      
 GA USED    *         0.00 MB       (max)       0.00 MB       (current)
 **********************************************************************************************************************************
 Starting task   2   Incrementing displacement  1 by -1.   CPU=    0.63 sec, Elapsed=    0.82 sec


 Recomputing integrals since geometry changed

1PROGRAM * SEWARD (Integral evaluation for generally contracted gaussian basis sets)     Author: Roland Lindh, 1990

 Geometry written to block  2 of record 700


 Point group  C1  



 ATOMIC COORDINATES

 NR  ATOM    CHARGE       X              Y              Z

   1  H       1.00  -10.884306653    6.651412326   -0.404437956
   2  H       1.00   -9.551224567    6.216017081   -0.556628070

 Bond lengths in Bohr (Angstrom)

 1-2  1.410616424
     ( 0.746466065)

 NUCLEAR CHARGE:                    2
 NUMBER OF PRIMITIVE AOS:          34
 NUMBER OF SYMMETRY AOS:           32
 NUMBER OF CONTRACTIONS:           28   (  28A   )
 NUMBER OF CORE ORBITALS:           0   (   0A   )
 NUMBER OF VALENCE ORBITALS:        2   (   2A   )


 NUCLEAR REPULSION ENERGY    0.70890994

 Eigenvalues of metric

         1 0.182E-02 0.728E-02 0.753E-02 0.433E-01 0.104E+00 0.104E+00 0.135E+00 0.226E+00


 Contracted 2-electron integrals neglected if value below      1.0D-12
 AO integral compression algorithm  1   Integral accuracy      1.0D-12

     1.049 MB (compressed) written to integral file (100.0%)

     Node minimum: 0.262 MB, node maximum: 0.524 MB


 NUMBER OF SORTED TWO-ELECTRON INTEGRALS:      27540.     BUFFER LENGTH:  32768
 NUMBER OF SEGMENTS:   1  SEGMENT LENGTH:      27540      RECORD LENGTH: 524288

 Memory used in sort:       0.58 MW

 SORT1 READ      119167. AND WROTE       24270. INTEGRALS IN      1 RECORDS. CPU TIME:     0.01 SEC, REAL TIME:     0.01 SEC
 SORT2 READ       73043. AND WROTE       82621. INTEGRALS IN      6 RECORDS. CPU TIME:     0.00 SEC, REAL TIME:     0.01 SEC

 Node minimum:       27405.  Node maximum:       27676. integrals

 OPERATOR DM      FOR CENTER  0  COORDINATES:    0.000000    0.000000    0.000000
1PROGRAM * RHF-SCF (CLOSED SHELL)       Authors: W. Meyer, H.-J. Werner


 NUMBER OF ELECTRONS:       1+    1-    SPACE SYMMETRY=1    SPIN SYMMETRY: Singlet 
 CONVERGENCE THRESHOLDS:    1.00E-07 (Density)    1.00E-09 (Energy)
 MAX. NUMBER OF ITERATIONS:       60
 INTERPOLATION TYPE:            DIIS
 INTERPOLATION STEPS:              2 (START)      1 (STEP)
 LEVEL SHIFTS:                  0.00 (CLOSED)  0.00 (OPEN) 

 Number of closed-shell orbitals:    1 (   1 )


 Molecular orbitals read from record     2100.2  Type=RHF/CANONICAL (state 1.1)

 Molecular orbital dump at record        2100.1

 ITERATION    DDIFF          GRAD             ENERGY        2-EL.EN.            DIPOLE MOMENTS         DIIS   ORB.
    1      0.000D+00      0.000D+00        -1.13287861      1.315536   -0.00000    0.00000   -0.00000    0    start
    2      0.000D+00      0.575D-03        -1.13288815      1.313210   -0.00000    0.00000   -0.00000    1    diag
    3      0.138D-02      0.698D-04        -1.13288836      1.312810   -0.00000    0.00000   -0.00000    2    diag
    4      0.167D-03      0.612D-05        -1.13288837      1.312778   -0.00000    0.00000   -0.00000    3    diag
    5      0.868D-05      0.181D-06        -1.13288837      1.312777   -0.00000    0.00000   -0.00000    4    diag
    6      0.213D-06      0.644D-08        -1.13288837      1.312777   -0.00000    0.00000   -0.00000    5    diag
    7      0.478D-08      0.239D-09        -1.13288837      1.312777   -0.00000    0.00000   -0.00000    0    orth

 Final occupancy:   1

 !RHF STATE 1.1 Energy                 -1.132888365341
 Nuclear energy                         0.70890994
 One-electron energy                   -2.49818685
 Two-electron energy                    0.65638854
 Virial quotient                       -1.01387090
 !RHF STATE 1.1 Dipole moment          -0.00000000     0.00000000    -0.00000000
 Dipole moment /Debye                  -0.00000000     0.00000000    -0.00000000

 Orbital energies:

         1.1          2.1          3.1
     -0.592705     0.166346     0.305602

 HOMO      1.1    -0.592705 =     -16.1283eV
 LUMO      2.1     0.166346 =       4.5265eV
 LUMO-HOMO         0.759051 =      20.6548eV


 **********************************************************************************************************************************
 DATASETS  * FILE   NREC   LENGTH (MB)   RECORD NAMES
              1      19       19.25       500      610      700      900      950      970     1000      129      960     1100   
                                          VAR    BASINP    GEOM    SYMINP    ZMAT    AOBASIS   BASIS     P2S    ABASIS      S 
                                         1400     1410     1200     1210     1080     1600     1650     1700     2100   
                                           T        V       H0       H01     AOSYM     SMH    MOLCAS    OPER      RHF  

              2       5        0.42       700     1000      520     2100     5600   
                                         GEOM     BASIS   MCVARS     RHF     GINFO   

 PROGRAMS   *        TOTAL       RHF   CCSD(T)       RHF       INT
 CPU TIMES  *         3.08      0.11      0.10      0.04      0.31
 REAL TIME  *         5.56 SEC
 DISK USED  *        72.66 MB      
 SF USED    *         0.21 MB      
 GA USED    *         0.00 MB       (max)       0.00 MB       (current)
 **********************************************************************************************************************************


1PROGRAM * CCSD (Closed-shell coupled cluster)     Authors: C. Hampel, H.-J. Werner, 1991, M. Deegan, P.J. Knowles, 1992


 Convergence thresholds:  THRVAR = 1.00D-12  THRDEN = 1.00D-08

 CCSD(T)     terms to be evaluated (factor= 1.000)


 Number of closed-shell orbitals:   1 (   1 )
 Number of external orbitals:      27 (  27 )

 Molecular orbitals read from record     2100.1  Type=RHF/CANONICAL (state 1.1)

 Number of N-1 electron functions:               1
 Number of N-2 electron functions:               1
 Number of singly external CSFs:                27
 Number of doubly external CSFs:               378
 Total number of CSFs:                         406

 Length of J-op  integral file:               0.00 MB
 Length of K-op  integral file:               0.06 MB
 Length of 3-ext integral record:             0.00 MB

 Integral transformation finished. Total CPU:   0.00 sec, npass=  1  Memory used:   0.10 MW

 Reference energy:                     -1.13288837

 MP2 singlet pair energy:              -0.03170035
 MP2 triplet pair energy:               0.00000000
 MP2 correlation energy:               -0.03170035
 MP2 total energy:                     -1.16458872

 SCS-MP2 correlation energy:           -0.03804043   (PS=  1.200000  PT=  0.333333)
 SCS-MP2 total energy:                 -1.17092879

 ITER.      SQ.NORM     CORR.ENERGY   TOTAL ENERGY   ENERGY CHANGE        DEN1      VAR(S)    VAR(P)  DIIS     TIME  TIME/IT
   1      1.01482178    -0.03855932    -1.17144768    -0.00685896    -0.00491118  0.42D-04  0.52D-03  1  1     0.03     0.00
   2      1.01799229    -0.03943021    -1.17231858    -0.00087089    -0.00261641  0.79D-06  0.12D-04  2  2     0.03     0.00
   3      1.01836743    -0.03943421    -1.17232257    -0.00000400    -0.00019175  0.13D-06  0.44D-06  3  3     0.03     0.00
   4      1.01841757    -0.03943954    -1.17232791    -0.00000533    -0.00001686  0.33D-08  0.10D-07  4  4     0.03     0.00
   5      1.01842240    -0.03943854    -1.17232691     0.00000100    -0.00000215  0.25D-09  0.10D-09  5  5     0.04     0.00
   6      1.01842230    -0.03943863    -1.17232700    -0.00000009     0.00000009  0.12D-10  0.33D-11  6  6     0.04     0.00
   7      1.01842225    -0.03943862    -1.17232699     0.00000001    -0.00000000  0.25D-12  0.19D-12  6  1     0.04     0.00
   8      1.01842224    -0.03943862    -1.17232699     0.00000000     0.00000000  0.11D-14  0.77D-14  6  2     0.05     0.00

 Norm of t1 vector:      0.01141267      S-energy:     0.00000000      T1 diagnostic:  0.00570633
                                                                       D1 diagnostic:  0.00806997

 Doubles amplitudes (print threshold =  0.500E-01):

         I         J         SYM. A    SYM. B    A         B      T(IJ, AB)

         1         1         1         1         3         3     -0.05665427


 RESULTS
 =======

  Reference energy                     -1.132888365341
  CCSD singlet pair energy             -0.039438624203
  CCSD triplet pair energy              0.000000000000
  CCSD correlation energy              -0.039438624160

  Triples (T) contribution              0.000000000000
  Total correlation energy             -0.039438624160

  CCSD total energy                    -1.172326989501
 !CCSD(T) total energy                 -1.172326989501

 Timing summary (sec):

 STEP                 CPU(USER)    SYS     CPU(TOT)    WALL
 Transformation          0.02      0.00      0.02      0.04
 CCSD iterations         0.03      0.01      0.04      0.04

 Program statistics:

 Available memory in ccsd:               499998928
 Min. memory needed in ccsd:                 11905
 Max. memory used in ccsd:                   11905
 Max. memory used in cckext:                 37844 ( 8 integral passes)



 **********************************************************************************************************************************
 DATASETS  * FILE   NREC   LENGTH (MB)   RECORD NAMES
              1      20       19.35       500      610      700      900      950      970     1000      129      960     1100   
                                          VAR    BASINP    GEOM    SYMINP    ZMAT    AOBASIS   BASIS     P2S    ABASIS      S 
                                         1400     1410     1200     1210     1080     1600     1650     1700     2100     1380   
                                           T        V       H0       H01     AOSYM     SMH    MOLCAS    OPER      RHF     JKOP   

              2       5        0.42       700     1000      520     2100     5600   
                                         GEOM     BASIS   MCVARS     RHF     GINFO   

 PROGRAMS   *        TOTAL   CCSD(T)   CCSD(T)       RHF       INT
 CPU TIMES  *         3.16      0.08      0.10      0.04      0.31
 REAL TIME  *         5.66 SEC
 DISK USED  *        72.66 MB      
 SF USED    *         0.21 MB      
 GA USED    *         0.00 MB       (max)       0.00 MB       (current)
 **********************************************************************************************************************************
 Numerical gradient completed. CPU-time:     0.86 sec, Elapsed:     1.20 sec

 Numerical gradient for CCSD(T)

 Total Energy            -1.17232784  Dipole moments:    0.000000    0.000000    0.000000

 Atom          dE/dx               dE/dy               dE/dz                  d2E/dx2             d2E/dy2             d2E/dz2
   1         0.002480556        -0.000810169        -0.000283190            0.000000000         0.000000000         0.000000000
   2        -0.002480556         0.000810169         0.000283190            0.000000000         0.000000000         0.000000000
 Reading points  1 to  2 from record 700.2,  wavefunction type=CCSD(T)         

 Making model hessian for cartesian coordinates
 BFGS update of hessian using  1 points

 Entering Rational Function Geometry Optimization

 Singular transformation in ROTATE

 Optimization point  2

 Variable                      Last           Current        Next           Gradient       Hessian
 E(CCSD(T)) / Hartree       -1.17147995    -1.17232784    -1.17233603
 GX1 / ANGSTROM             -5.74155115    -5.75619086    -5.75775050     0.00468757    -0.00000000
 GY1 / ANGSTROM              3.51383943     3.51862088     3.51913027    -0.00153100    -0.00000000
 GZ1 / ANGSTROM             -0.21609438    -0.21442305    -0.21424500    -0.00053515    -0.00000000
 GX2 / ANGSTROM             -5.07246627    -5.05782656    -5.05626691    -0.00468757     0.00000000
 GY2 / ANGSTROM              3.29531097     3.29052953     3.29002013     0.00153100     0.00000000
 GZ2 / ANGSTROM             -0.29247986    -0.29415118    -0.29432924     0.00053515     2.82882906
 Convergence:                0.00000000  (line search)     0.00441054     0.00371207  (total)

 Geometry written to block  3 of record 700


 Recomputing integrals since geometry changed

1PROGRAM * SEWARD (Integral evaluation for generally contracted gaussian basis sets)     Author: Roland Lindh, 1990

 Geometry written to block  3 of record 700


 Point group  C1  



 ATOMIC COORDINATES

 NR  ATOM    CHARGE       X              Y              Z

   1  H       1.00  -10.880571547    6.650192410   -0.404864371
   2  H       1.00   -9.554959673    6.217236996   -0.556201655

 Bond lengths in Bohr (Angstrom)

 1-2  1.402711733
     ( 0.742283083)

 NUCLEAR CHARGE:                    2
 NUMBER OF PRIMITIVE AOS:          34
 NUMBER OF SYMMETRY AOS:           32
 NUMBER OF CONTRACTIONS:           28   (  28A   )
 NUMBER OF CORE ORBITALS:           0   (   0A   )
 NUMBER OF VALENCE ORBITALS:        2   (   2A   )


 NUCLEAR REPULSION ENERGY    0.71290485

 Eigenvalues of metric

         1 0.177E-02 0.708E-02 0.745E-02 0.430E-01 0.103E+00 0.103E+00 0.134E+00 0.227E+00


 Contracted 2-electron integrals neglected if value below      1.0D-12
 AO integral compression algorithm  1   Integral accuracy      1.0D-12

     1.049 MB (compressed) written to integral file (100.0%)

     Node minimum: 0.262 MB, node maximum: 0.524 MB


 NUMBER OF SORTED TWO-ELECTRON INTEGRALS:      27540.     BUFFER LENGTH:  32768
 NUMBER OF SEGMENTS:   1  SEGMENT LENGTH:      27540      RECORD LENGTH: 524288

 Memory used in sort:       0.58 MW

 SORT1 READ      119167. AND WROTE       24270. INTEGRALS IN      1 RECORDS. CPU TIME:     0.01 SEC, REAL TIME:     0.01 SEC
 SORT2 READ       73043. AND WROTE       82621. INTEGRALS IN      6 RECORDS. CPU TIME:     0.00 SEC, REAL TIME:     0.01 SEC

 Node minimum:       27405.  Node maximum:       27676. integrals

 OPERATOR DM      FOR CENTER  0  COORDINATES:    0.000000    0.000000    0.000000
1PROGRAM * RHF-SCF (CLOSED SHELL)       Authors: W. Meyer, H.-J. Werner


 NUMBER OF ELECTRONS:       1+    1-    SPACE SYMMETRY=1    SPIN SYMMETRY: Singlet 
 CONVERGENCE THRESHOLDS:    1.00E-07 (Density)    1.00E-09 (Energy)
 MAX. NUMBER OF ITERATIONS:       60
 INTERPOLATION TYPE:            DIIS
 INTERPOLATION STEPS:              2 (START)      1 (STEP)
 LEVEL SHIFTS:                  0.00 (CLOSED)  0.00 (OPEN) 

 Number of closed-shell orbitals:    1 (   1 )


 Molecular orbitals read from record     2100.2  Type=RHF/CANONICAL (state 1.1)

 Molecular orbital dump at record        2100.2

 ITERATION    DDIFF          GRAD             ENERGY        2-EL.EN.            DIPOLE MOMENTS         DIIS   ORB.
    1      0.000D+00      0.000D+00        -1.13294426      1.316978   -0.00000    0.00000   -0.00000    0    start
    2      0.000D+00      0.254D-03        -1.13294612      1.315947   -0.00000    0.00000   -0.00000    1    diag
    3      0.611D-03      0.308D-04        -1.13294616      1.315770   -0.00000    0.00000   -0.00000    2    diag
    4      0.741D-04      0.270D-05        -1.13294616      1.315756   -0.00000    0.00000   -0.00000    3    diag
    5      0.384D-05      0.800D-07        -1.13294616      1.315755   -0.00000    0.00000   -0.00000    4    diag
    6      0.944D-07      0.283D-08        -1.13294616      1.315755   -0.00000    0.00000   -0.00000    0    orth

 Final occupancy:   1

 !RHF STATE 1.1 Energy                 -1.132946163439
 Nuclear energy                         0.71290485
 One-electron energy                   -2.50372871
 Two-electron energy                    0.65787770
 Virial quotient                       -1.01006869
 !RHF STATE 1.1 Dipole moment          -0.00000000     0.00000000    -0.00000000
 Dipole moment /Debye                  -0.00000000     0.00000000    -0.00000000

 Orbital energies:

         1.1          2.1          3.1
     -0.593987     0.166937     0.305213

 HOMO      1.1    -0.593987 =     -16.1632eV
 LUMO      2.1     0.166937 =       4.5426eV
 LUMO-HOMO         0.760923 =      20.7058eV


 **********************************************************************************************************************************
 DATASETS  * FILE   NREC   LENGTH (MB)   RECORD NAMES
              1      18       19.10       500      610      700      900      950      970     1000      129      960     1100   
                                          VAR    BASINP    GEOM    SYMINP    ZMAT    AOBASIS   BASIS     P2S    ABASIS      S 
                                         1400     1410     1200     1210     1080     1600     1650     1700   
                                           T        V       H0       H01     AOSYM     SMH    MOLCAS    OPER   

              2       5        0.42       700     1000      520     2100     5600   
                                         GEOM     BASIS   MCVARS     RHF     GINFO   

 PROGRAMS   *        TOTAL       RHF   CCSD(T)       RHF       INT
 CPU TIMES  *         3.29      0.12      0.10      0.04      0.31
 REAL TIME  *         5.85 SEC
 DISK USED  *        72.66 MB      
 SF USED    *         0.21 MB      
 GA USED    *         0.00 MB       (max)       0.00 MB       (current)
 **********************************************************************************************************************************


1PROGRAM * CCSD (Closed-shell coupled cluster)     Authors: C. Hampel, H.-J. Werner, 1991, M. Deegan, P.J. Knowles, 1992


 Convergence thresholds:  THRVAR = 1.00D-12  THRDEN = 1.00D-08

 CCSD(T)     terms to be evaluated (factor= 1.000)


 Number of closed-shell orbitals:   1 (   1 )
 Number of external orbitals:      27 (  27 )

 Molecular orbitals read from record     2100.2  Type=RHF/CANONICAL (state 1.1)

 Number of N-1 electron functions:               1
 Number of N-2 electron functions:               1
 Number of singly external CSFs:                27
 Number of doubly external CSFs:               378
 Total number of CSFs:                         406

 Length of J-op  integral file:               0.00 MB
 Length of K-op  integral file:               0.06 MB
 Length of 3-ext integral record:             0.00 MB

 Integral transformation finished. Total CPU:   0.00 sec, npass=  1  Memory used:   0.10 MW

 Reference energy:                     -1.13294616

 MP2 singlet pair energy:              -0.03168448
 MP2 triplet pair energy:               0.00000000
 MP2 correlation energy:               -0.03168448
 MP2 total energy:                     -1.16463064

 SCS-MP2 correlation energy:           -0.03802138   (PS=  1.200000  PT=  0.333333)
 SCS-MP2 total energy:                 -1.17096754

 ITER.      SQ.NORM     CORR.ENERGY   TOTAL ENERGY   ENERGY CHANGE        DEN1      VAR(S)    VAR(P)  DIIS     TIME  TIME/IT
   1      1.01473850    -0.03852156    -1.17146772    -0.00683708    -0.00490140  0.41D-04  0.51D-03  1  1     0.01     0.00
   2      1.01786766    -0.03938234    -1.17232850    -0.00086078    -0.00259818  0.76D-06  0.12D-04  2  2     0.01     0.00
   3      1.01823339    -0.03938612    -1.17233229    -0.00000379    -0.00018783  0.12D-06  0.43D-06  3  3     0.01     0.00
   4      1.01828224    -0.03939135    -1.17233752    -0.00000523    -0.00001657  0.32D-08  0.98D-08  4  4     0.01     0.00
   5      1.01828687    -0.03939036    -1.17233653     0.00000099    -0.00000207  0.24D-09  0.98D-10  5  5     0.02     0.00
   6      1.01828676    -0.03939045    -1.17233662    -0.00000009     0.00000009  0.12D-10  0.32D-11  6  6     0.02     0.00
   7      1.01828671    -0.03939045    -1.17233661     0.00000001    -0.00000000  0.25D-12  0.19D-12  6  1     0.02     0.00
   8      1.01828670    -0.03939045    -1.17233661     0.00000000     0.00000000  0.10D-14  0.74D-14  6  2     0.02     0.00

 Norm of t1 vector:      0.01126903      S-energy:     0.00000000      T1 diagnostic:  0.00563451
                                                                       D1 diagnostic:  0.00796841

 Doubles amplitudes (print threshold =  0.500E-01):

         I         J         SYM. A    SYM. B    A         B      T(IJ, AB)

[...]
 REAL TIME  *        32.06 SEC
 DISK USED  *        72.68 MB      
 SF USED    *         0.21 MB      
 GA USED    *         0.00 MB       (max)       0.00 MB       (current)
 **********************************************************************************************************************************


1PROGRAM * CCSD (Closed-shell coupled cluster)     Authors: C. Hampel, H.-J. Werner, 1991, M. Deegan, P.J. Knowles, 1992


 Convergence thresholds:  THRVAR = 1.00D-12  THRDEN = 1.00D-08

 CCSD(T)     terms to be evaluated (factor= 1.000)


 Number of closed-shell orbitals:   1 (   1 )
 Number of external orbitals:      27 (  27 )

 Molecular orbitals read from record     2100.1  Type=RHF/CANONICAL (state 1.1)

 Number of N-1 electron functions:               1
 Number of N-2 electron functions:               1
 Number of singly external CSFs:                27
 Number of doubly external CSFs:               378
 Total number of CSFs:                         406

 Length of J-op  integral file:               0.00 MB
 Length of K-op  integral file:               0.06 MB
 Length of 3-ext integral record:             0.00 MB

 Integral transformation finished. Total CPU:   0.03 sec, npass=  1  Memory used:   0.10 MW

 Reference energy:                     -1.13293461

 MP2 singlet pair energy:              -0.03168821
 MP2 triplet pair energy:               0.00000000
 MP2 correlation energy:               -0.03168821
 MP2 total energy:                     -1.16462283

 SCS-MP2 correlation energy:           -0.03802586   (PS=  1.200000  PT=  0.333333)
 SCS-MP2 total energy:                 -1.17096047

 ITER.      SQ.NORM     CORR.ENERGY   TOTAL ENERGY   ENERGY CHANGE        DEN1      VAR(S)    VAR(P)  DIIS     TIME  TIME/IT
   1      1.01475815    -0.03853045    -1.17146506    -0.00684224    -0.00490371  0.42D-04  0.52D-03  1  1     0.08     0.06
   2      1.01789705    -0.03939361    -1.17232822    -0.00086316    -0.00260248  0.76D-06  0.12D-04  2  2     0.09     0.04
   3      1.01826498    -0.03939745    -1.17233206    -0.00000384    -0.00018875  0.12D-06  0.43D-06  3  3     0.10     0.04
   4      1.01831413    -0.03940270    -1.17233731    -0.00000525    -0.00001664  0.33D-08  0.99D-08  4  4     0.10     0.03
   5      1.01831881    -0.03940171    -1.17233632     0.00000099    -0.00000209  0.24D-09  0.99D-10  5  5     0.12     0.03
   6      1.01831870    -0.03940180    -1.17233641    -0.00000009     0.00000009  0.12D-10  0.33D-11  6  6     0.19     0.05
   7      1.01831865    -0.03940179    -1.17233641     0.00000001    -0.00000000  0.25D-12  0.19D-12  6  1     0.21     0.05
   8      1.01831864    -0.03940179    -1.17233641     0.00000000     0.00000000  0.10D-14  0.75D-14  6  2     0.21     0.04

 Norm of t1 vector:      0.01130294      S-energy:     0.00000000      T1 diagnostic:  0.00565147
                                                                       D1 diagnostic:  0.00799238

 Doubles amplitudes (print threshold =  0.500E-01):

         I         J         SYM. A    SYM. B    A         B      T(IJ, AB)

         1         1         1         1         3         3     -0.05649087


 RESULTS
 =======

  Reference energy                     -1.132934614630
  CCSD singlet pair energy             -0.039401792362
  CCSD triplet pair energy              0.000000000000
  CCSD correlation energy              -0.039401792290

  Triples (T) contribution              0.000000000000
  Total correlation energy             -0.039401792290

  CCSD total energy                    -1.172336406920
 !CCSD(T) total energy                 -1.172336406920

 Timing summary (sec):

 STEP                 CPU(USER)    SYS     CPU(TOT)    WALL
 Transformation          0.04      0.00      0.04      0.06
 CCSD iterations         0.17      0.00      0.17      0.38

 Program statistics:

 Available memory in ccsd:               499998871
 Min. memory needed in ccsd:                 11905
 Max. memory used in ccsd:                   11905
 Max. memory used in cckext:                 37844 ( 8 integral passes)



 **********************************************************************************************************************************
 DATASETS  * FILE   NREC   LENGTH (MB)   RECORD NAMES
              1      20       19.35       500      610      700      900      950      970     1000      129      960     1100   
                                          VAR    BASINP    GEOM    SYMINP    ZMAT    AOBASIS   BASIS     P2S    ABASIS      S 
                                         1400     1410     1200     1210     1080     1600     1650     1700     2100     1380   
                                           T        V       H0       H01     AOSYM     SMH    MOLCAS    OPER      RHF     JKOP   

              2       6        0.42       700     1000      520     2100     5600     5500   
                                         GEOM     BASIS   MCVARS     RHF     GINFO    HINFO   

 PROGRAMS   *        TOTAL   CCSD(T)      OPTG   CCSD(T)       RHF       INT
 CPU TIMES  *        20.12      0.25      4.89      0.10      0.04      0.31
 REAL TIME  *        32.55 SEC
 DISK USED  *        72.68 MB      
 SF USED    *         0.21 MB      
 GA USED    *         0.00 MB       (max)       0.00 MB       (current)
 **********************************************************************************************************************************

 Numerical CCSD(T) hessian completed. CPU-time:    16.19 sec, Elapsed:    23.34 sec

 CCSD(T) hessian saved to record  5300.2

 FREQUENCIES * CALCULATION OF HARMONIC VIBRATIONAL SPECTRA FOR CCSD(T)


 Permanent Dipole Moment [debye]
   1-  3    0.000000    0.000000    0.000000

 Dipole Moment Norm    0.0000000 [debye]

 Dipole Moment Derivatives [debye/ang]
                   1             2             3             4             5             6
         1     0.0000000     0.0000000     0.0000000     0.0000000     0.0000000     0.0000000
         2     0.0000000     0.0000000     0.0000000     0.0000000     0.0000000     0.0000000
         3     0.0000000     0.0000000     0.0000000     0.0000000     0.0000000     0.0000000

 Projecting out rotations and translations

   Low Vibration      Wavenumber
        Nr             [1/cm] 
        1                0.00
        2                0.00
        3                0.00
        4                0.00
        5                0.00

     Vibration        Wavenumber
        Nr             [1/cm] 
        1             4408.40

 FREQUENCIES * CALCULATION OF NORMAL MODES FOR CCSD(T)


 Atomic Coordinates

  Nr  Atom  Charge       X              Y              Z

   1   H     1.00  -10.880929258    6.650309241   -0.404823533
   2   H     1.00   -9.554601962    6.217120165   -0.556242493

 Frequencies dumped to record   5400.2

 Gradient norm at reference geometry: 0.41402D-04
 
 Molecule is not in standard orientation!
 Symmetry information for normal modes not available!

 Normal Modes

                              1 Err
 Wavenumbers [cm-1]         4408.40
 Intensities [km/mol]          0.00
 Intensities [relative]        0.00
           GX1              0.66560
           GY1             -0.21739
           GZ1             -0.07599
           GX2             -0.66560
           GY2              0.21739
           GZ2              0.07599


 Normal Modes of low/zero frequencies

                                  1           2           3           4           5
 Wavenumbers [cm-1]            0.00        0.00        0.00        0.00        0.00
 Intensities [km/mol]          0.00        0.00        0.00        0.00        0.00
 Intensities [relative]        0.00        0.00        0.00        0.00        0.00
           GX1              0.21482    -0.03604     0.01419    -0.13309     0.69551
           GY1              0.90669     0.04251     0.03299     0.34620    -0.00422
           GZ1              0.06296    -0.44505     0.85196    -0.23954    -0.03301
           GX2             -0.18814    -0.03119    -0.00944     0.08816     0.71054
           GY2             -0.25865    -0.37918     0.08077     0.85292     0.01376
           GZ2             -0.13277     0.80386     0.50831     0.24885     0.04719


 Zero point energy:  0.01004307 [H]     2204.20 [1/CM]       26.37 [KJ/MOL]

 Recomputing wavefunction at initial geometry


 Recomputing integrals since geometry changed

1PROGRAM * SEWARD (Integral evaluation for generally contracted gaussian basis sets)     Author: Roland Lindh, 1990

 Geometry written to block  1 of record 700


 Point group  C1  



 ATOMIC COORDINATES

 NR  ATOM    CHARGE       X              Y              Z

   1  H       1.00  -10.880929258    6.650309241   -0.404823533
   2  H       1.00   -9.554601962    6.217120165   -0.556242493

 Bond lengths in Bohr (Angstrom)

 1-2  1.403468764
     ( 0.742683686)

 NUCLEAR CHARGE:                    2
 NUMBER OF PRIMITIVE AOS:          34
 NUMBER OF SYMMETRY AOS:           32
 NUMBER OF CONTRACTIONS:           28   (  28A   )
 NUMBER OF CORE ORBITALS:           0   (   0A   )
 NUMBER OF VALENCE ORBITALS:        2   (   2A   )


 NUCLEAR REPULSION ENERGY    0.71252031

 Eigenvalues of metric

         1 0.178E-02 0.710E-02 0.745E-02 0.430E-01 0.103E+00 0.103E+00 0.134E+00 0.227E+00


 Contracted 2-electron integrals neglected if value below      1.0D-12
 AO integral compression algorithm  1   Integral accuracy      1.0D-12

     1.311 MB (compressed) written to integral file (100.0%)

     Node minimum: 0.262 MB, node maximum: 0.524 MB


 NUMBER OF SORTED TWO-ELECTRON INTEGRALS:      27540.     BUFFER LENGTH:  32768
 NUMBER OF SEGMENTS:   1  SEGMENT LENGTH:      27540      RECORD LENGTH: 524288

 Memory used in sort:       0.58 MW

 SORT1 READ      119167. AND WROTE       24270. INTEGRALS IN      1 RECORDS. CPU TIME:     0.03 SEC, REAL TIME:     0.03 SEC
 SORT2 READ       73043. AND WROTE       82621. INTEGRALS IN      6 RECORDS. CPU TIME:     0.01 SEC, REAL TIME:     0.01 SEC

 Node minimum:       27405.  Node maximum:       27676. integrals

 OPERATOR DM      FOR CENTER  0  COORDINATES:    0.000000    0.000000    0.000000
1PROGRAM * RHF-SCF (CLOSED SHELL)       Authors: W. Meyer, H.-J. Werner


 NUMBER OF ELECTRONS:       1+    1-    SPACE SYMMETRY=1    SPIN SYMMETRY: Singlet 
 CONVERGENCE THRESHOLDS:    1.00E-07 (Density)    1.00E-09 (Energy)
 MAX. NUMBER OF ITERATIONS:       60
 INTERPOLATION TYPE:            DIIS
 INTERPOLATION STEPS:              2 (START)      1 (STEP)
 LEVEL SHIFTS:                  0.00 (CLOSED)  0.00 (OPEN) 

 Number of closed-shell orbitals:    1 (   1 )


 Molecular orbitals read from record     2100.2  Type=RHF/CANONICAL (state 1.1)

 Molecular orbital dump at record        2100.2

 ITERATION    DDIFF          GRAD             ENERGY        2-EL.EN.            DIPOLE MOMENTS         DIIS   ORB.
    1      0.000D+00      0.000D+00        -1.13294165      1.315470    0.00000   -0.00000    0.00000    0    start
    2      0.000D+00      0.217D-10        -1.13294165      1.315470    0.00000   -0.00000    0.00000    0    orth

 Final occupancy:   1

 !RHF STATE 1.1 Energy                 -1.132941651481
 Nuclear energy                         0.71252031
 One-electron energy                   -2.50319672
 Two-electron energy                    0.65773475
 Virial quotient                       -1.01043399
 !RHF STATE 1.1 Dipole moment           0.00000000    -0.00000000     0.00000000
 Dipole moment /Debye                   0.00000000    -0.00000000     0.00000000

 Orbital energies:

         1.1          2.1          3.1
     -0.593864     0.166880     0.305250

 HOMO      1.1    -0.593864 =     -16.1599eV
 LUMO      2.1     0.166880 =       4.5410eV
 LUMO-HOMO         0.760744 =      20.7009eV


 **********************************************************************************************************************************
 DATASETS  * FILE   NREC   LENGTH (MB)   RECORD NAMES
              1      18       19.10       500      610      700      900      950      970     1000      129      960     1100   
                                          VAR    BASINP    GEOM    SYMINP    ZMAT    AOBASIS   BASIS     P2S    ABASIS      S 
                                         1400     1410     1200     1210     1080     1600     1650     1700   
                                           T        V       H0       H01     AOSYM     SMH    MOLCAS    OPER   

              2       8        0.42       700     1000      520     2100     5600     5300     5400     5450   
                                         GEOM     BASIS   MCVARS     RHF     GINFO    HESS     FREQ     NMOD   

 PROGRAMS   *        TOTAL       RHF      OPTG   CCSD(T)       RHF       INT
 CPU TIMES  *        20.35      0.22      4.89      0.10      0.04      0.31
 REAL TIME  *        32.92 SEC
 DISK USED  *        72.68 MB      
 SF USED    *         0.21 MB      
 GA USED    *         0.00 MB       (max)       0.00 MB       (current)
 **********************************************************************************************************************************


1PROGRAM * CCSD (Closed-shell coupled cluster)     Authors: C. Hampel, H.-J. Werner, 1991, M. Deegan, P.J. Knowles, 1992


 Convergence thresholds:  THRVAR = 1.00D-12  THRDEN = 1.00D-08

 CCSD(T)     terms to be evaluated (factor= 1.000)


 Number of closed-shell orbitals:   1 (   1 )
 Number of external orbitals:      27 (  27 )

 Molecular orbitals read from record     2100.2  Type=RHF/CANONICAL (state 1.1)

 Number of N-1 electron functions:               1
 Number of N-2 electron functions:               1
 Number of singly external CSFs:                27
 Number of doubly external CSFs:               378
 Total number of CSFs:                         406

 Length of J-op  integral file:               0.00 MB
 Length of K-op  integral file:               0.06 MB
 Length of 3-ext integral record:             0.00 MB

 Integral transformation finished. Total CPU:   0.01 sec, npass=  1  Memory used:   0.10 MW

 Reference energy:                     -1.13294165

 MP2 singlet pair energy:              -0.03168599
 MP2 triplet pair energy:               0.00000000
 MP2 correlation energy:               -0.03168599
 MP2 total energy:                     -1.16462764

 SCS-MP2 correlation energy:           -0.03802319   (PS=  1.200000  PT=  0.333333)
 SCS-MP2 total energy:                 -1.17096484

 ITER.      SQ.NORM     CORR.ENERGY   TOTAL ENERGY   ENERGY CHANGE        DEN1      VAR(S)    VAR(P)  DIIS     TIME  TIME/IT
   1      1.01474644    -0.03852515    -1.17146680    -0.00683916    -0.00490233  0.42D-04  0.51D-03  1  1     0.01     0.00
   2      1.01787954    -0.03938689    -1.17232854    -0.00086174    -0.00259992  0.76D-06  0.12D-04  2  2     0.03     0.01
   3      1.01824616    -0.03939070    -1.17233235    -0.00000381    -0.00018820  0.12D-06  0.43D-06  3  3     0.06     0.02
   4      1.01829513    -0.03939594    -1.17233759    -0.00000524    -0.00001659  0.32D-08  0.98D-08  4  4     0.07     0.02
   5      1.01829978    -0.03939495    -1.17233660     0.00000099    -0.00000208  0.24D-09  0.99D-10  5  5     0.09     0.02
   6      1.01829967    -0.03939504    -1.17233669    -0.00000009     0.00000009  0.12D-10  0.32D-11  6  6     0.14     0.02
   7      1.01829963    -0.03939503    -1.17233668     0.00000001    -0.00000000  0.25D-12  0.19D-12  6  1     0.16     0.02
   8      1.01829962    -0.03939503    -1.17233668     0.00000000     0.00000000  0.10D-14  0.75D-14  6  2     0.16     0.02

 Norm of t1 vector:      0.01128274      S-energy:     0.00000000      T1 diagnostic:  0.00564137
                                                                       D1 diagnostic:  0.00797810

 Doubles amplitudes (print threshold =  0.500E-01):

         I         J         SYM. A    SYM. B    A         B      T(IJ, AB)

         1         1         1         1         3         3     -0.05646045


 RESULTS
 =======

  Reference energy                     -1.132941651481
  CCSD singlet pair energy             -0.039395032681
  CCSD triplet pair energy              0.000000000000
  CCSD correlation energy              -0.039395032633

  Triples (T) contribution              0.000000000000
  Total correlation energy             -0.039395032633

  CCSD total energy                    -1.172336684114
 !CCSD(T) total energy                 -1.172336684114

 Timing summary (sec):

 STEP                 CPU(USER)    SYS     CPU(TOT)    WALL
 Transformation          0.01      0.00      0.01      0.01
 CCSD iterations         0.16      0.01      0.17      0.16

 Program statistics:

 Available memory in ccsd:               499999896
 Min. memory needed in ccsd:                 11905
 Max. memory used in ccsd:                   11905
 Max. memory used in cckext:                 37844 ( 8 integral passes)



 **********************************************************************************************************************************
 DATASETS  * FILE   NREC   LENGTH (MB)   RECORD NAMES
              1      19       19.21       500      610      700      900      950      970     1000      129      960     1100   
                                          VAR    BASINP    GEOM    SYMINP    ZMAT    AOBASIS   BASIS     P2S    ABASIS      S 
                                         1400     1410     1200     1210     1080     1600     1650     1700     1380   
                                           T        V       H0       H01     AOSYM     SMH    MOLCAS    OPER     JKOP   

              2       8        0.42       700     1000      520     2100     5600     5300     5400     5450   
                                         GEOM     BASIS   MCVARS     RHF     GINFO    HESS     FREQ     NMOD   

 PROGRAMS   *        TOTAL   CCSD(T)      OPTG   CCSD(T)       RHF       INT
 CPU TIMES  *        20.55      0.19      4.89      0.10      0.04      0.31
 REAL TIME  *        33.14 SEC
 DISK USED  *        72.68 MB      
 SF USED    *         0.21 MB      
 GA USED    *         0.00 MB       (max)       0.00 MB       (current)
 **********************************************************************************************************************************


 **********************************************************************************************************************************
 DATASETS  * FILE   NREC   LENGTH (MB)   RECORD NAMES
              1      19       19.21       500      610      700      900      950      970     1000      129      960     1100   
                                          VAR    BASINP    GEOM    SYMINP    ZMAT    AOBASIS   BASIS     P2S    ABASIS      S 
                                         1400     1410     1200     1210     1080     1600     1650     1700     1380   
                                           T        V       H0       H01     AOSYM     SMH    MOLCAS    OPER     JKOP   

              2       8        0.42       700     1000      520     2100     5600     5300     5400     5450   
                                         GEOM     BASIS   MCVARS     RHF     GINFO    HESS     FREQ     NMOD   

 PROGRAMS   *        TOTAL      FREQ      OPTG   CCSD(T)       RHF       INT
 CPU TIMES  *        20.55     14.92      4.89      0.10      0.04      0.31
 REAL TIME  *        33.14 SEC
 DISK USED  *        72.68 MB      
 SF USED    *         0.21 MB      
 GA USED    *         0.00 MB       (max)       0.00 MB       (current)
 **********************************************************************************************************************************

 CCSD(T)/cc-pVTZ energy=     -1.172336684114

   OPTG(CCSD(T))        CCSD(T)         RHF-SCF 
     -1.17233668     -1.17147995     -1.13246044
 **********************************************************************************************************************************
 Variable memory released
