
    -----------------------------------------------------------------------
          Psi4: An Open-Source Ab Initio Electronic Structure Package
                               Psi4 1.2.1 release

                         Git: Rev {HEAD} 406f4de 


    R. M. Parrish, L. A. Burns, D. G. A. Smith, A. C. Simmonett,
    A. E. DePrince III, E. G. Hohenstein, U. Bozkaya, A. Yu. Sokolov,
    R. Di Remigio, R. M. Richard, J. F. Gonthier, A. M. James,
    H. R. McAlexander, A. Kumar, M. Saitow, X. Wang, B. P. Pritchard,
    P. Verma, H. F. Schaefer III, K. Patkowski, R. A. King, E. F. Valeev,
    F. A. Evangelista, J. M. Turney, T. D. Crawford, and C. D. Sherrill,
    J. Chem. Theory Comput. 13(7) pp 3185--3197 (2017).
    (doi: 10.1021/acs.jctc.7b00174)


                         Additional Contributions by
    P. Kraus, H. Kruse, M. H. Lechner, M. C. Schieber, and R. A. Shaw

    -----------------------------------------------------------------------


    Psi4 started on: Tuesday, 15 January 2019 10:56AM

    Process ID: 87691
    Host:       blogin3
    PSIDATADIR: /home/kmoore/miniconda/envs/esenv/share/psi4
    Memory:     500.0 MiB
    Threads:    1
    
  ==> Input File <==

--------------------------------------------------------------------------
molecule h2o {
  O
  H 1 r1
  H 1 r2 2 a1
r1 = 0.95
r2 = 0.95
a1 = 104.5 
}

set basis dz

optimize('scf')
freq('scf')
--------------------------------------------------------------------------
gradient() will perform analytic gradient computation.

*** tstart() called on blogin3
*** at Tue Jan 15 10:56:32 2019

   => Loading Basis Set <=

    Name: DZ
    Role: ORBITAL
    Keyword: BASIS
    atoms 1   entry O          line   107 file /home/kmoore/miniconda/envs/esenv/share/psi4/basis/dz.gbs 
    atoms 2-3 entry H          line    12 file /home/kmoore/miniconda/envs/esenv/share/psi4/basis/dz.gbs 

    There are an even number of electrons - assuming singlet.
    Specify the multiplicity in the molecule input block.


         ---------------------------------------------------------
                                   SCF
            by Justin Turney, Rob Parrish, Andy Simmonett
                             and Daniel Smith
                              RHF Reference
                        1 Threads,    500 MiB Core
         ---------------------------------------------------------

  ==> Geometry <==

    Molecular point group: c2v
    Full point group: C2v

    Geometry (in Angstrom), charge = 0, multiplicity = 1:

       Center              X                  Y                   Z               Mass       
    ------------   -----------------  -----------------  -----------------  -----------------
         O            0.000000000000     0.000000000000    -0.065090408345    15.994914619560
         H            0.000000000000    -0.751155095057     0.516516007688     1.007825032070
         H            0.000000000000     0.751155095057     0.516516007688     1.007825032070

  Running in c2v symmetry.

  Rotational constants: A =     27.83995  B =     14.82252  C =      9.67263 [cm^-1]
  Rotational constants: A = 834620.57159  B = 444368.04883  C = 289978.11942 [MHz]
  Nuclear repulsion =    9.264700557865336

  Charge       = 0
  Multiplicity = 1
  Electrons    = 10
  Nalpha       = 5
  Nbeta        = 5

  ==> Algorithm <==

  SCF Algorithm Type is DF.
  DIIS enabled.
  MOM disabled.
  Fractional occupation disabled.
  Guess Type is SAD.
  Energy threshold   = 1.00e-08
  Density threshold  = 1.00e-08
  Integral threshold = 0.00e+00

  ==> Primary Basis <==

  Basis Set: DZ
    Blend: DZ
    Number of shells: 10
    Number of basis function: 14
    Number of Cartesian functions: 14
    Spherical Harmonics?: false
    Max angular momentum: 1

   => Loading Basis Set <=

    Name: (DZ AUX)
    Role: JKFIT
    Keyword: DF_BASIS_SCF
    atoms 1   entry O          line   323 file /home/kmoore/miniconda/envs/esenv/share/psi4/basis/def2-qzvpp-jkfit.gbs 
    atoms 2-3 entry H          line    23 file /home/kmoore/miniconda/envs/esenv/share/psi4/basis/def2-qzvpp-jkfit.gbs 

  ==> Pre-Iterations <==

   -------------------------------------------------------
    Irrep   Nso     Nmo     Nalpha   Nbeta   Ndocc  Nsocc
   -------------------------------------------------------
     A1         8       8       0       0       0       0
     A2         0       0       0       0       0       0
     B1         2       2       0       0       0       0
     B2         4       4       0       0       0       0
   -------------------------------------------------------
    Total      14      14       5       5       5       0
   -------------------------------------------------------

  ==> Integral Setup <==

  ==> DiskDFJK: Density-Fitted J/K Matrices <==

    J tasked:                  Yes
    K tasked:                  Yes
    wK tasked:                  No
    OpenMP threads:              1
    Integrals threads:           1
    Memory (MB):               375
    Algorithm:                Core
    Integral Cache:           NONE
    Schwarz Cutoff:          1E-12
    Fitting Condition:       1E-12

   => Auxiliary Basis Set <=

  Basis Set: (DZ AUX)
    Blend: DEF2-QZVPP-JKFIT
    Number of shells: 37
    Number of basis function: 133
    Number of Cartesian functions: 133
    Spherical Harmonics?: false
    Max angular momentum: 4

  Minimum eigenvalue in the overlap matrix is 5.4876679362E-02.
  Using Symmetric Orthogonalization.

  SCF Guess: Superposition of Atomic Densities via on-the-fly atomic UHF.

  ==> Iterations <==

                           Total Energy        Delta E     RMS |[F,P]|

   @DF-RHF iter   0:   -75.93631044905109   -7.59363e+01   1.85532e-01 
   @DF-RHF iter   1:   -75.98592225650259   -4.96118e-02   2.44556e-02 
   @DF-RHF iter   2:   -76.00371035275383   -1.77881e-02   1.28691e-02 DIIS
   @DF-RHF iter   3:   -76.00899823124327   -5.28788e-03   1.77102e-03 DIIS
   @DF-RHF iter   4:   -76.00919284564030   -1.94614e-04   3.46830e-04 DIIS
   @DF-RHF iter   5:   -76.00920906356397   -1.62179e-05   6.86237e-05 DIIS
   @DF-RHF iter   6:   -76.00920968230663   -6.18743e-07   8.17029e-06 DIIS
   @DF-RHF iter   7:   -76.00920968750813   -5.20150e-09   1.06197e-06 DIIS
   @DF-RHF iter   8:   -76.00920968763641   -1.28281e-10   1.31582e-07 DIIS
   @DF-RHF iter   9:   -76.00920968763738   -9.66338e-13   1.24720e-08 DIIS
   @DF-RHF iter  10:   -76.00920968763742   -4.26326e-14   1.36795e-09 DIIS

  ==> Post-Iterations <==

    Orbital Energies [Eh]
    ---------------------

    Doubly Occupied:                                                      

       1A1   -20.557967     2A1    -1.365862     1B2    -0.721371  
       3A1    -0.567994     1B1    -0.506796  

    Virtual:                                                              

       4A1     0.220563     2B2     0.313300     2B1     0.865521  
       5A1     0.890156     3B2     0.911551     6A1     1.234647  
       4B2     1.243360     7A1     1.676198     8A1    43.340395  

    Final Occupation by Irrep:
             A1    A2    B1    B2 
    DOCC [     3,    0,    1,    1 ]

  Energy converged.

  @DF-RHF Final Energy:   -76.00920968763742

   => Energetics <=

    Nuclear Repulsion Energy =              9.2647005578653356
    One-Electron Energy =                -123.1078406251071726
    Two-Electron Energy =                  37.8339303796044177
    Total Energy =                        -76.0092096876374228



Properties will be evaluated at   0.000000,   0.000000,   0.000000 [a0]

Properties computed using the SCF density matrix

  Nuclear Dipole Moment: [e a0]
     X:     0.0000      Y:    -0.0000      Z:     0.9681

  Electronic Dipole Moment: [e a0]
     X:     0.0000      Y:     0.0000      Z:     0.0860

  Dipole Moment: [e a0]
     X:     0.0000      Y:    -0.0000      Z:     1.0542     Total:     1.0542

  Dipole Moment: [D]
     X:     0.0000      Y:    -0.0000      Z:     2.6794     Total:     2.6794


*** tstop() called on blogin3 at Tue Jan 15 10:56:33 2019
Module time:
	user time   =       0.55 seconds =       0.01 minutes
	system time =       0.03 seconds =       0.00 minutes
	total time  =          1 seconds =       0.02 minutes
Total time:
	user time   =       0.55 seconds =       0.01 minutes
	system time =       0.03 seconds =       0.00 minutes
	total time  =          1 seconds =       0.02 minutes

*** tstart() called on blogin3
*** at Tue Jan 15 10:56:33 2019


         ------------------------------------------------------------
                                   SCF GRAD                          
                          Rob Parrish, Justin Turney,                
                       Andy Simmonett, and Alex Sokolov              
         ------------------------------------------------------------

  ==> Geometry <==

    Molecular point group: c2v
    Full point group: C2v

    Geometry (in Angstrom), charge = 0, multiplicity = 1:

       Center              X                  Y                   Z               Mass       
    ------------   -----------------  -----------------  -----------------  -----------------
         O            0.000000000000     0.000000000000    -0.065090408345    15.994914619560
         H            0.000000000000    -0.751155095057     0.516516007688     1.007825032070
         H            0.000000000000     0.751155095057     0.516516007688     1.007825032070

  Nuclear repulsion =    9.264700557865336

  ==> Basis Set <==

  Basis Set: DZ
    Blend: DZ
    Number of shells: 10
    Number of basis function: 14
    Number of Cartesian functions: 14
    Spherical Harmonics?: false
    Max angular momentum: 1

  ==> DFJKGrad: Density-Fitted SCF Gradients <==

    Gradient:                    1
    J tasked:                  Yes
    K tasked:                  Yes
    wK tasked:                  No
    OpenMP threads:              1
    Integrals threads:           1
    Memory (MB):               375
    Schwarz Cutoff:          0E+00
    Fitting Condition:       1E-12

   => Auxiliary Basis Set <=

  Basis Set: (DZ AUX)
    Blend: DEF2-QZVPP-JKFIT
    Number of shells: 37
    Number of basis function: 133
    Number of Cartesian functions: 133
    Spherical Harmonics?: false
    Max angular momentum: 4


  -Total Gradient:
     Atom            X                  Y                   Z
    ------   -----------------  -----------------  -----------------
       1        0.000000000000     0.000000000000    -0.014455118929
       2       -0.000000000000     0.014391146042     0.007227559464
       3        0.000000000000    -0.014391146042     0.007227559464


*** tstop() called on blogin3 at Tue Jan 15 10:56:34 2019
Module time:
	user time   =       0.14 seconds =       0.00 minutes
	system time =       0.01 seconds =       0.00 minutes
	total time  =          1 seconds =       0.02 minutes
Total time:
	user time   =       0.69 seconds =       0.01 minutes
	system time =       0.04 seconds =       0.00 minutes
	total time  =          2 seconds =       0.03 minutes

			-----------------------------------------
			 OPTKING 2.0: for geometry optimizations 
			  - R.A. King,  Bethel University        
			-----------------------------------------

	Internal coordinates to be generated automatically.
	Detected frag 1 with atoms:  1 2 3
	---Fragment 1 Bond Connectivity---
	 1 : 2 3
	 2 : 1
	 3 : 1

	---Fragment 1 Geometry and Gradient---
	 O           0.0000000000        0.0000000000       -0.1230030456
	 H           0.0000000000       -1.4194774130        0.9760737978
	 H           0.0000000000        1.4194774130        0.9760737978
	             0.0000000000        0.0000000000       -0.0144551189
	            -0.0000000000        0.0143911460        0.0072275595
	             0.0000000000       -0.0143911460        0.0072275595

	Previous optimization step data not found.  Starting new optimization.

	---Fragment 1 Intrafragment Coordinates---
	 - Coordinate -           - BOHR/RAD -       - ANG/DEG -
	 R(1,2)           =         1.795240	       0.950000
	 R(1,3)           =         1.795240	       0.950000
	 B(2,1,3)         =         1.823869	     104.500000

	Current energy   :       -76.0092096876

	Generating empirical Hessian (Schlegel '84) for each fragment.
	Taking RFO optimization step.
	Going to follow RFO solution 1.
	Using RFO vector 1.
	Norm of target step-size    0.15961
	Projected energy change by RFO approximation:        -0.0034195212

	Back-transformation to cartesian coordinates...
	Successfully converged to displaced geometry.

	--- Internal Coordinate Step in ANG or DEG, aJ/ANG or AJ/DEG ---
	 ---------------------------------------------------------------------------
	   Coordinate                Previous        Force       Change         New 
	   ----------                --------       ------       ------       ------
	    1 R(1,2)          =      0.950000     0.057293     0.006333     0.956333
	    2 R(1,3)          =      0.950000     0.057293     0.006333     0.956333
	    3 B(2,1,3)        =    104.500000     0.001984     9.093238   113.593238
	 ---------------------------------------------------------------------------
	Successfully symmetrized geometry.

  ==> Convergence Check <==

  Measures of convergence in internal coordinates in au.
  Criteria marked as inactive (o), active & met (*), and active & unmet ( ).
  --------------------------------------------------------------------------------------------- ~
   Step     Total Energy     Delta E     MAX Force     RMS Force      MAX Disp      RMS Disp    ~
  --------------------------------------------------------------------------------------------- ~
    Convergence Criteria    1.00e-06 *    3.00e-04 *             o    1.20e-03 *             o  ~
  --------------------------------------------------------------------------------------------- ~
      1     -76.00920969   -7.60e+01      2.61e-02      1.61e-02 o    1.59e-01      9.21e-02 o  ~
  ---------------------------------------------------------------------------------------------

	Writing optimization data to binary file.
	Structure for next step:
	Cartesian Geometry (in Angstrom)
	    O     0.0000000000   0.0000000000  -0.0264859685
	    H     0.0000000000  -0.8001940484   0.4972137877
	    H     0.0000000000   0.8001940484   0.4972137877
			--------------------------
			 OPTKING Finished Execution 
			--------------------------

    Structure for next step:
    Molecular point group: c2v
    Full point group: C2v

    Geometry (in Angstrom), charge = 0, multiplicity = 1:

    O       
    H             1          r1
    H             1          r2      2          a1

    a1        =  113.5932378087
    r1        =    0.9563325519
    r2        =    0.9563325519

gradient() will perform analytic gradient computation.

*** tstart() called on blogin3
*** at Tue Jan 15 10:56:34 2019

   => Loading Basis Set <=

    Name: DZ
    Role: ORBITAL
    Keyword: BASIS
    atoms 1   entry O          line   107 file /home/kmoore/miniconda/envs/esenv/share/psi4/basis/dz.gbs 
    atoms 2-3 entry H          line    12 file /home/kmoore/miniconda/envs/esenv/share/psi4/basis/dz.gbs 


         ---------------------------------------------------------
                                   SCF
            by Justin Turney, Rob Parrish, Andy Simmonett
                             and Daniel Smith
                              RHF Reference
                        1 Threads,    500 MiB Core
         ---------------------------------------------------------

  ==> Geometry <==

    Molecular point group: c2v
    Full point group: C2v

    Geometry (in Angstrom), charge = 0, multiplicity = 1:

       Center              X                  Y                   Z               Mass       
    ------------   -----------------  -----------------  -----------------  -----------------
         O            0.000000000000     0.000000000000    -0.058609791849    15.994914619560
         H            0.000000000000    -0.800194048439     0.465089964360     1.007825032070
         H            0.000000000000     0.800194048439     0.465089964360     1.007825032070

  Running in c2v symmetry.

  Rotational constants: A =     34.33697  B =     13.06143  C =      9.46213 [cm^-1]
  Rotational constants: A = 1029396.57544  B = 391571.81622  C = 283667.59530 [MHz]
  Nuclear repulsion =    9.184098133331966

  Charge       = 0
  Multiplicity = 1
  Electrons    = 10
  Nalpha       = 5
  Nbeta        = 5

  ==> Algorithm <==

  SCF Algorithm Type is DF.
  DIIS enabled.
  MOM disabled.
  Fractional occupation disabled.
  Guess Type is READ.
  Energy threshold   = 1.00e-08
  Density threshold  = 1.00e-08
  Integral threshold = 0.00e+00

  ==> Primary Basis <==

  Basis Set: DZ
    Blend: DZ
    Number of shells: 10
    Number of basis function: 14
    Number of Cartesian functions: 14
    Spherical Harmonics?: false
    Max angular momentum: 1

   => Loading Basis Set <=

    Name: (DZ AUX)
    Role: JKFIT
    Keyword: DF_BASIS_SCF
    atoms 1   entry O          line   323 file /home/kmoore/miniconda/envs/esenv/share/psi4/basis/def2-qzvpp-jkfit.gbs 
    atoms 2-3 entry H          line    23 file /home/kmoore/miniconda/envs/esenv/share/psi4/basis/def2-qzvpp-jkfit.gbs 

  Reading orbitals from file 180, no projection.

  ==> Pre-Iterations <==

   -------------------------------------------------------
    Irrep   Nso     Nmo     Nalpha   Nbeta   Ndocc  Nsocc
   -------------------------------------------------------
     A1         8       8       0       0       0       0
     A2         0       0       0       0       0       0
     B1         2       2       0       0       0       0
     B2         4       4       0       0       0       0
   -------------------------------------------------------
    Total      14      14       5       5       5       0
   -------------------------------------------------------

  ==> Integral Setup <==

  ==> DiskDFJK: Density-Fitted J/K Matrices <==

    J tasked:                  Yes
    K tasked:                  Yes
    wK tasked:                  No
    OpenMP threads:              1
    Integrals threads:           1
    Memory (MB):               375
    Algorithm:                Core
    Integral Cache:           NONE
    Schwarz Cutoff:          1E-12
    Fitting Condition:       1E-12

   => Auxiliary Basis Set <=

  Basis Set: (DZ AUX)
    Blend: DEF2-QZVPP-JKFIT
    Number of shells: 37
    Number of basis function: 133
    Number of Cartesian functions: 133
    Spherical Harmonics?: false
    Max angular momentum: 4

  Minimum eigenvalue in the overlap matrix is 5.8262540303E-02.
  Using Symmetric Orthogonalization.

  SCF Guess: Orbitals guess was supplied from a previous computation.

  ==> Iterations <==

                           Total Energy        Delta E     RMS |[F,P]|

   @DF-RHF iter   0:   -76.01157213685281   -7.60116e+01   4.05548e-03 
   @DF-RHF iter   1:   -76.01083442542046    7.37711e-04   9.43515e-04 
   @DF-RHF iter   2:   -76.01089610554916   -6.16801e-05   3.64985e-04 DIIS
   @DF-RHF iter   3:   -76.01090703502872   -1.09295e-05   2.09015e-04 DIIS
   @DF-RHF iter   4:   -76.01091007715493   -3.04213e-06   3.57179e-05 DIIS
   @DF-RHF iter   5:   -76.01091026932762   -1.92173e-07   1.88806e-06 DIIS
   @DF-RHF iter   6:   -76.01091026957972   -2.52101e-10   3.17232e-07 DIIS
   @DF-RHF iter   7:   -76.01091026958885   -9.12337e-12   2.87869e-08 DIIS
   @DF-RHF iter   8:   -76.01091026958885    0.00000e+00   2.56933e-09 DIIS

  ==> Post-Iterations <==

    Orbital Energies [Eh]
    ---------------------

    Doubly Occupied:                                                      

       1A1   -20.552795     2A1    -1.352796     1B2    -0.733299  
       3A1    -0.550346     1B1    -0.502463  

    Virtual:                                                              

       4A1     0.220062     2B2     0.312572     2B1     0.868187  
       5A1     0.886593     3B2     0.946561     6A1     1.174793  
       4B2     1.256760     7A1     1.648936     8A1    43.339032  

    Final Occupation by Irrep:
             A1    A2    B1    B2 
    DOCC [     3,    0,    1,    1 ]

  Energy converged.

  @DF-RHF Final Energy:   -76.01091026958885

   => Energetics <=

    Nuclear Repulsion Energy =              9.1840981333319665
    One-Electron Energy =                -123.0066196153852047
    Two-Electron Energy =                  37.8116112124643848
    Total Energy =                        -76.0109102695888481



Properties will be evaluated at   0.000000,   0.000000,   0.000000 [a0]

Properties computed using the SCF density matrix

  Nuclear Dipole Moment: [e a0]
     X:     0.0000      Y:     0.0000      Z:     0.8717

  Electronic Dipole Moment: [e a0]
     X:     0.0000      Y:     0.0000      Z:     0.1158

  Dipole Moment: [e a0]
     X:     0.0000      Y:     0.0000      Z:     0.9875     Total:     0.9875

  Dipole Moment: [D]
     X:     0.0000      Y:     0.0000      Z:     2.5101     Total:     2.5101


*** tstop() called on blogin3 at Tue Jan 15 10:56:34 2019
Module time:
	user time   =       0.25 seconds =       0.00 minutes
	system time =       0.01 seconds =       0.00 minutes
	total time  =          0 seconds =       0.00 minutes
Total time:
	user time   =       0.95 seconds =       0.02 minutes
	system time =       0.05 seconds =       0.00 minutes
	total time  =          2 seconds =       0.03 minutes

*** tstart() called on blogin3
*** at Tue Jan 15 10:56:34 2019


         ------------------------------------------------------------
                                   SCF GRAD                          
                          Rob Parrish, Justin Turney,                
                       Andy Simmonett, and Alex Sokolov              
         ------------------------------------------------------------

  ==> Geometry <==

    Molecular point group: c2v
    Full point group: C2v

    Geometry (in Angstrom), charge = 0, multiplicity = 1:

       Center              X                  Y                   Z               Mass       
    ------------   -----------------  -----------------  -----------------  -----------------
         O            0.000000000000     0.000000000000    -0.058609791849    15.994914619560
         H            0.000000000000    -0.800194048439     0.465089964360     1.007825032070
         H            0.000000000000     0.800194048439     0.465089964360     1.007825032070

  Nuclear repulsion =    9.184098133331966

  ==> Basis Set <==

  Basis Set: DZ
    Blend: DZ
    Number of shells: 10
    Number of basis function: 14
    Number of Cartesian functions: 14
    Spherical Harmonics?: false
    Max angular momentum: 1

  ==> DFJKGrad: Density-Fitted SCF Gradients <==

    Gradient:                    1
    J tasked:                  Yes
    K tasked:                  Yes
    wK tasked:                  No
    OpenMP threads:              1
    Integrals threads:           1
    Memory (MB):               375
    Schwarz Cutoff:          0E+00
    Fitting Condition:       1E-12

   => Auxiliary Basis Set <=

  Basis Set: (DZ AUX)
    Blend: DEF2-QZVPP-JKFIT
    Number of shells: 37
    Number of basis function: 133
    Number of Cartesian functions: 133
    Spherical Harmonics?: false
    Max angular momentum: 4


  -Total Gradient:
     Atom            X                  Y                   Z
    ------   -----------------  -----------------  -----------------
       1       -0.000000000000     0.000000000000    -0.003241299340
       2        0.000000000000    -0.006353208581     0.001620649670
       3       -0.000000000000     0.006353208581     0.001620649670


*** tstop() called on blogin3 at Tue Jan 15 10:56:34 2019
Module time:
	user time   =       0.13 seconds =       0.00 minutes
	system time =       0.00 seconds =       0.00 minutes
	total time  =          0 seconds =       0.00 minutes
Total time:
	user time   =       1.08 seconds =       0.02 minutes
	system time =       0.05 seconds =       0.00 minutes
	total time  =          2 seconds =       0.03 minutes

			-----------------------------------------
			 OPTKING 2.0: for geometry optimizations 
			  - R.A. King,  Bethel University        
			-----------------------------------------

	Previous internal coordinate definitions found.
	---Fragment 1 Geometry and Gradient---
	 O           0.0000000000        0.0000000000       -0.1107564553
	 H           0.0000000000       -1.5121476047        0.8788926598
	 H           0.0000000000        1.5121476047        0.8788926598
	            -0.0000000000        0.0000000000       -0.0032412993
	             0.0000000000       -0.0063532086        0.0016206497
	            -0.0000000000        0.0063532086        0.0016206497

	---Fragment 1 Intrafragment Coordinates---
	 - Coordinate -           - BOHR/RAD -       - ANG/DEG -
	 R(1,2)           =         1.807207	       0.956333
	 R(1,3)           =         1.807207	       0.956333
	 B(2,1,3)         =         1.982576	     113.593238

	Current energy   :       -76.0109102696

	Energy change for the previous step:
		Projected    :        -0.0034195212
		Actual       :        -0.0017005820

	Performing BFGS update.
	Previous computed or guess Hessian on step 1.
	Steps to be used in Hessian update: 1
	Taking RFO optimization step.
	Going to follow RFO solution 1.
	Using RFO vector 1.
	Norm of target step-size    0.02154
	Projected energy change by RFO approximation:        -0.0002336336

	Back-transformation to cartesian coordinates...
	Successfully converged to displaced geometry.

	--- Internal Coordinate Step in ANG or DEG, aJ/ANG or AJ/DEG ---
	 ---------------------------------------------------------------------------
	   Coordinate                Previous        Force       Change         New 
	   ----------                --------       ------       ------       ------
	    1 R(1,2)          =      0.956333    -0.051108    -0.004739     0.951593
	    2 R(1,3)          =      0.956333    -0.051108    -0.004739     0.951593
	    3 B(2,1,3)        =    113.593238    -0.000292    -0.998275   112.594962
	 ---------------------------------------------------------------------------
	Successfully symmetrized geometry.

  ==> Convergence Check <==

  Measures of convergence in internal coordinates in au.
  Criteria marked as inactive (o), active & met (*), and active & unmet ( ).
  ---------------------------------------------------------------------------------------------
   Step     Total Energy     Delta E     MAX Force     RMS Force      MAX Disp      RMS Disp   
  ---------------------------------------------------------------------------------------------
    Convergence Criteria    1.00e-06 *    3.00e-04 *             o    1.20e-03 *             o
  ---------------------------------------------------------------------------------------------
      2     -76.01091027   -1.70e-03      6.20e-03      5.53e-03 o    1.74e-02      1.24e-02 o  ~
  ---------------------------------------------------------------------------------------------

	Writing optimization data to binary file.
	Structure for next step:
	Cartesian Geometry (in Angstrom)
	    O     0.0000000000   0.0000000000  -0.0614905908
	    H     0.0000000000  -0.7916586252   0.4665303638
	    H     0.0000000000   0.7916586252   0.4665303638
			--------------------------
			 OPTKING Finished Execution 
			--------------------------

    Structure for next step:
    Molecular point group: c2v
    Full point group: C2v

    Geometry (in Angstrom), charge = 0, multiplicity = 1:

    O       
    H             1          r1
    H             1          r2      2          a1

    a1        =  112.5949624264
    r1        =    0.9515931417
    r2        =    0.9515931417

gradient() will perform analytic gradient computation.

*** tstart() called on blogin3
*** at Tue Jan 15 10:56:34 2019

   => Loading Basis Set <=

    Name: DZ
    Role: ORBITAL
    Keyword: BASIS
    atoms 1   entry O          line   107 file /home/kmoore/miniconda/envs/esenv/share/psi4/basis/dz.gbs 
    atoms 2-3 entry H          line    12 file /home/kmoore/miniconda/envs/esenv/share/psi4/basis/dz.gbs 


         ---------------------------------------------------------
                                   SCF
            by Justin Turney, Rob Parrish, Andy Simmonett
                             and Daniel Smith
                              RHF Reference
                        1 Threads,    500 MiB Core
         ---------------------------------------------------------

  ==> Geometry <==

    Molecular point group: c2v
    Full point group: C2v

    Geometry (in Angstrom), charge = 0, multiplicity = 1:

       Center              X                  Y                   Z               Mass       
    ------------   -----------------  -----------------  -----------------  -----------------
         O            0.000000000000     0.000000000000    -0.059093398220    15.994914619560
         H            0.000000000000    -0.791658625234     0.468927556385     1.007825032070
         H            0.000000000000     0.791658625234     0.468927556385     1.007825032070

  Running in c2v symmetry.

  Rotational constants: A =     33.77726  B =     13.34460  C =      9.56550 [cm^-1]
  Rotational constants: A = 1012616.84284  B = 400060.95162  C = 286766.35207 [MHz]
  Nuclear repulsion =    9.231757736726442

  Charge       = 0
  Multiplicity = 1
  Electrons    = 10
  Nalpha       = 5
  Nbeta        = 5

  ==> Algorithm <==

  SCF Algorithm Type is DF.
  DIIS enabled.
  MOM disabled.
  Fractional occupation disabled.
  Guess Type is READ.
  Energy threshold   = 1.00e-08
  Density threshold  = 1.00e-08
  Integral threshold = 0.00e+00

  ==> Primary Basis <==

  Basis Set: DZ
    Blend: DZ
    Number of shells: 10
    Number of basis function: 14
    Number of Cartesian functions: 14
    Spherical Harmonics?: false
    Max angular momentum: 1

   => Loading Basis Set <=

    Name: (DZ AUX)
    Role: JKFIT
    Keyword: DF_BASIS_SCF
    atoms 1   entry O          line   323 file /home/kmoore/miniconda/envs/esenv/share/psi4/basis/def2-qzvpp-jkfit.gbs 
    atoms 2-3 entry H          line    23 file /home/kmoore/miniconda/envs/esenv/share/psi4/basis/def2-qzvpp-jkfit.gbs 

  Reading orbitals from file 180, no projection.

  ==> Pre-Iterations <==

   -------------------------------------------------------
    Irrep   Nso     Nmo     Nalpha   Nbeta   Ndocc  Nsocc
   -------------------------------------------------------
     A1         8       8       0       0       0       0
     A2         0       0       0       0       0       0
     B1         2       2       0       0       0       0
     B2         4       4       0       0       0       0
   -------------------------------------------------------
    Total      14      14       5       5       5       0
   -------------------------------------------------------

  ==> Integral Setup <==

  ==> DiskDFJK: Density-Fitted J/K Matrices <==

    J tasked:                  Yes
    K tasked:                  Yes
    wK tasked:                  No
    OpenMP threads:              1
    Integrals threads:           1
    Memory (MB):               375
    Algorithm:                Core
    Integral Cache:           NONE
    Schwarz Cutoff:          1E-12
    Fitting Condition:       1E-12

   => Auxiliary Basis Set <=

  Basis Set: (DZ AUX)
    Blend: DEF2-QZVPP-JKFIT
    Number of shells: 37
    Number of basis function: 133
    Number of Cartesian functions: 133
    Spherical Harmonics?: false
    Max angular momentum: 4

  Minimum eigenvalue in the overlap matrix is 5.7435491868E-02.
  Using Symmetric Orthogonalization.

  SCF Guess: Orbitals guess was supplied from a previous computation.

  ==> Iterations <==

                           Total Energy        Delta E     RMS |[F,P]|

   @DF-RHF iter   0:   -76.01603879330432   -7.60160e+01   1.15046e-03 
   @DF-RHF iter   1:   -76.01100344198082    5.03535e-03   1.75128e-04 
   @DF-RHF iter   2:   -76.01100472323155   -1.28125e-06   8.10696e-05 DIIS
   @DF-RHF iter   3:   -76.01100493305316   -2.09822e-07   2.07643e-05 DIIS
   @DF-RHF iter   4:   -76.01100495342385   -2.03707e-08   2.89105e-06 DIIS
   @DF-RHF iter   5:   -76.01100495436171   -9.37860e-10   5.76910e-07 DIIS
   @DF-RHF iter   6:   -76.01100495440976   -4.80469e-11   8.22887e-08 DIIS
   @DF-RHF iter   7:   -76.01100495441064   -8.81073e-13   1.38991e-08 DIIS
   @DF-RHF iter   8:   -76.01100495441071   -7.10543e-14   9.37370e-10 DIIS

  ==> Post-Iterations <==

    Orbital Energies [Eh]
    ---------------------

    Doubly Occupied:                                                      

       1A1   -20.552742     2A1    -1.356357     1B2    -0.734554  
       3A1    -0.552860     1B1    -0.503264  

    Virtual:                                                              

       4A1     0.221474     2B2     0.313874     2B1     0.867809  
       5A1     0.886203     3B2     0.940400     6A1     1.186470  
       4B2     1.260276     7A1     1.652662     8A1    43.340750  

    Final Occupation by Irrep:
             A1    A2    B1    B2 
    DOCC [     3,    0,    1,    1 ]

  Energy converged.

  @DF-RHF Final Energy:   -76.01100495441071

   => Energetics <=

    Nuclear Repulsion Energy =              9.2317577367264416
    One-Electron Energy =                -123.0859721933934594
    Two-Electron Energy =                  37.8432095022563217
    Total Energy =                        -76.0110049544107085



Properties will be evaluated at   0.000000,   0.000000,   0.000000 [a0]

Properties computed using the SCF density matrix

  Nuclear Dipole Moment: [e a0]
     X:     0.0000      Y:     0.0000      Z:     0.8789

  Electronic Dipole Moment: [e a0]
     X:     0.0000      Y:     0.0000      Z:     0.1157

  Dipole Moment: [e a0]
     X:     0.0000      Y:     0.0000      Z:     0.9947     Total:     0.9947

  Dipole Moment: [D]
     X:     0.0000      Y:     0.0000      Z:     2.5281     Total:     2.5281


*** tstop() called on blogin3 at Tue Jan 15 10:56:35 2019
Module time:
	user time   =       0.23 seconds =       0.00 minutes
	system time =       0.00 seconds =       0.00 minutes
	total time  =          1 seconds =       0.02 minutes
Total time:
	user time   =       1.32 seconds =       0.02 minutes
	system time =       0.05 seconds =       0.00 minutes
	total time  =          3 seconds =       0.05 minutes

*** tstart() called on blogin3
*** at Tue Jan 15 10:56:35 2019


         ------------------------------------------------------------
                                   SCF GRAD                          
                          Rob Parrish, Justin Turney,                
                       Andy Simmonett, and Alex Sokolov              
         ------------------------------------------------------------

  ==> Geometry <==

    Molecular point group: c2v
    Full point group: C2v

    Geometry (in Angstrom), charge = 0, multiplicity = 1:

       Center              X                  Y                   Z               Mass       
    ------------   -----------------  -----------------  -----------------  -----------------
         O            0.000000000000     0.000000000000    -0.059093398220    15.994914619560
         H            0.000000000000    -0.791658625234     0.468927556385     1.007825032070
         H            0.000000000000     0.791658625234     0.468927556385     1.007825032070

  Nuclear repulsion =    9.231757736726442

  ==> Basis Set <==

  Basis Set: DZ
    Blend: DZ
    Number of shells: 10
    Number of basis function: 14
    Number of Cartesian functions: 14
    Spherical Harmonics?: false
    Max angular momentum: 1

  ==> DFJKGrad: Density-Fitted SCF Gradients <==

    Gradient:                    1
    J tasked:                  Yes
    K tasked:                  Yes
    wK tasked:                  No
    OpenMP threads:              1
    Integrals threads:           1
    Memory (MB):               375
    Schwarz Cutoff:          0E+00
    Fitting Condition:       1E-12

   => Auxiliary Basis Set <=

  Basis Set: (DZ AUX)
    Blend: DEF2-QZVPP-JKFIT
    Number of shells: 37
    Number of basis function: 133
    Number of Cartesian functions: 133
    Spherical Harmonics?: false
    Max angular momentum: 4


  -Total Gradient:
     Atom            X                  Y                   Z
    ------   -----------------  -----------------  -----------------
       1        0.000000000000     0.000000000000    -0.000114246537
       2        0.000000000000    -0.000355213971     0.000057123269
       3       -0.000000000000     0.000355213971     0.000057123269


*** tstop() called on blogin3 at Tue Jan 15 10:56:35 2019
Module time:
	user time   =       0.12 seconds =       0.00 minutes
	system time =       0.01 seconds =       0.00 minutes
	total time  =          0 seconds =       0.00 minutes
Total time:
	user time   =       1.45 seconds =       0.02 minutes
	system time =       0.06 seconds =       0.00 minutes
	total time  =          3 seconds =       0.05 minutes

			-----------------------------------------
			 OPTKING 2.0: for geometry optimizations 
			  - R.A. King,  Bethel University        
			-----------------------------------------

	Previous internal coordinate definitions found.
	---Fragment 1 Geometry and Gradient---
	 O           0.0000000000        0.0000000000       -0.1116703389
	 H           0.0000000000       -1.4960179924        0.8861446577
	 H           0.0000000000        1.4960179924        0.8861446577
	             0.0000000000        0.0000000000       -0.0001142465
	             0.0000000000       -0.0003552140        0.0000571233
	            -0.0000000000        0.0003552140        0.0000571233

	---Fragment 1 Intrafragment Coordinates---
	 - Coordinate -           - BOHR/RAD -       - ANG/DEG -
	 R(1,2)           =         1.798250	       0.951593
	 R(1,3)           =         1.798250	       0.951593
	 B(2,1,3)         =         1.965153	     112.594962

	Current energy   :       -76.0110049544

	Energy change for the previous step:
		Projected    :        -0.0002336336
		Actual       :        -0.0000946848

	Performing BFGS update.
	Previous computed or guess Hessian on step 1.
	Steps to be used in Hessian update: 2 1
	Taking RFO optimization step.
	Going to follow RFO solution 1.
	Using RFO vector 1.
	Norm of target step-size    0.00142
	Projected energy change by RFO approximation:        -0.0000008741

	Back-transformation to cartesian coordinates...
	Successfully converged to displaced geometry.

	--- Internal Coordinate Step in ANG or DEG, aJ/ANG or AJ/DEG ---
	 ---------------------------------------------------------------------------
	   Coordinate                Previous        Force       Change         New 
	   ----------                --------       ------       ------       ------
	    1 R(1,2)          =      0.951593    -0.002696    -0.000241     0.951353
	    2 R(1,3)          =      0.951593    -0.002696    -0.000241     0.951353
	    3 B(2,1,3)        =    112.594962    -0.000020    -0.072533   112.522429
	 ---------------------------------------------------------------------------
	Successfully symmetrized geometry.

  ==> Convergence Check <==

  Measures of convergence in internal coordinates in au.
  Criteria marked as inactive (o), active & met (*), and active & unmet ( ).
  ---------------------------------------------------------------------------------------------
   Step     Total Energy     Delta E     MAX Force     RMS Force      MAX Disp      RMS Disp   
  ---------------------------------------------------------------------------------------------
    Convergence Criteria    1.00e-06 *    3.00e-04 *             o    1.20e-03 *             o
  ---------------------------------------------------------------------------------------------
      3     -76.01100495   -9.47e-05      3.27e-04      3.09e-04 o    1.27e-03      8.20e-04 o  ~
  ---------------------------------------------------------------------------------------------

	Writing optimization data to binary file.
	Structure for next step:
	Cartesian Geometry (in Angstrom)
	    O     0.0000000000   0.0000000000  -0.0593383057
	    H     0.0000000000  -0.7911241705   0.4690500101
	    H     0.0000000000   0.7911241705   0.4690500101
			--------------------------
			 OPTKING Finished Execution 
			--------------------------

    Structure for next step:
    Molecular point group: c2v
    Full point group: C2v

    Geometry (in Angstrom), charge = 0, multiplicity = 1:

    O       
    H             1          r1
    H             1          r2      2          a1

    a1        =  112.5224294126
    r1        =    0.9513525453
    r2        =    0.9513525453

gradient() will perform analytic gradient computation.

*** tstart() called on blogin3
*** at Tue Jan 15 10:56:35 2019

   => Loading Basis Set <=

    Name: DZ
    Role: ORBITAL
    Keyword: BASIS
    atoms 1   entry O          line   107 file /home/kmoore/miniconda/envs/esenv/share/psi4/basis/dz.gbs 
    atoms 2-3 entry H          line    12 file /home/kmoore/miniconda/envs/esenv/share/psi4/basis/dz.gbs 


         ---------------------------------------------------------
                                   SCF
            by Justin Turney, Rob Parrish, Andy Simmonett
                             and Daniel Smith
                              RHF Reference
                        1 Threads,    500 MiB Core
         ---------------------------------------------------------

  ==> Geometry <==

    Molecular point group: c2v
    Full point group: C2v

    Geometry (in Angstrom), charge = 0, multiplicity = 1:

       Center              X                  Y                   Z               Mass       
    ------------   -----------------  -----------------  -----------------  -----------------
         O            0.000000000000     0.000000000000    -0.059134511407    15.994914619560
         H            0.000000000000    -0.791124170463     0.469253804440     1.007825032070
         H            0.000000000000     0.791124170463     0.469253804440     1.007825032070

  Running in c2v symmetry.

  Rotational constants: A =     33.73031  B =     13.36263  C =      9.57098 [cm^-1]
  Rotational constants: A = 1011209.29141  B = 400601.66751  C = 286930.85698 [MHz]
  Nuclear repulsion =    9.234233705561154

  Charge       = 0
  Multiplicity = 1
  Electrons    = 10
  Nalpha       = 5
  Nbeta        = 5

  ==> Algorithm <==

  SCF Algorithm Type is DF.
  DIIS enabled.
  MOM disabled.
  Fractional occupation disabled.
  Guess Type is READ.
  Energy threshold   = 1.00e-08
  Density threshold  = 1.00e-08
  Integral threshold = 0.00e+00

  ==> Primary Basis <==

  Basis Set: DZ
    Blend: DZ
    Number of shells: 10
    Number of basis function: 14
    Number of Cartesian functions: 14
    Spherical Harmonics?: false
    Max angular momentum: 1

   => Loading Basis Set <=

    Name: (DZ AUX)
    Role: JKFIT
    Keyword: DF_BASIS_SCF
    atoms 1   entry O          line   323 file /home/kmoore/miniconda/envs/esenv/share/psi4/basis/def2-qzvpp-jkfit.gbs 
    atoms 2-3 entry H          line    23 file /home/kmoore/miniconda/envs/esenv/share/psi4/basis/def2-qzvpp-jkfit.gbs 

  Reading orbitals from file 180, no projection.

  ==> Pre-Iterations <==

   -------------------------------------------------------
    Irrep   Nso     Nmo     Nalpha   Nbeta   Ndocc  Nsocc
   -------------------------------------------------------
     A1         8       8       0       0       0       0
     A2         0       0       0       0       0       0
     B1         2       2       0       0       0       0
     B2         4       4       0       0       0       0
   -------------------------------------------------------
    Total      14      14       5       5       5       0
   -------------------------------------------------------

  ==> Integral Setup <==

  ==> DiskDFJK: Density-Fitted J/K Matrices <==

    J tasked:                  Yes
    K tasked:                  Yes
    wK tasked:                  No
    OpenMP threads:              1
    Integrals threads:           1
    Memory (MB):               375
    Algorithm:                Core
    Integral Cache:           NONE
    Schwarz Cutoff:          1E-12
    Fitting Condition:       1E-12

   => Auxiliary Basis Set <=

  Basis Set: (DZ AUX)
    Blend: DEF2-QZVPP-JKFIT
    Number of shells: 37
    Number of basis function: 133
    Number of Cartesian functions: 133
    Spherical Harmonics?: false
    Max angular momentum: 4

  Minimum eigenvalue in the overlap matrix is 5.7386941462E-02.
  Using Symmetric Orthogonalization.

  SCF Guess: Orbitals guess was supplied from a previous computation.

  ==> Iterations <==

                           Total Energy        Delta E     RMS |[F,P]|

   @DF-RHF iter   0:   -76.01124624807100   -7.60112e+01   6.25661e-05 
   @DF-RHF iter   1:   -76.01100528527381    2.40963e-04   1.03508e-05 
   @DF-RHF iter   2:   -76.01100528995595   -4.68214e-09   4.67826e-06 DIIS
   @DF-RHF iter   3:   -76.01100529074436   -7.88418e-10   1.44078e-06 DIIS
   @DF-RHF iter   4:   -76.01100529086531   -1.20949e-10   2.75624e-07 DIIS
   @DF-RHF iter   5:   -76.01100529087552   -1.02034e-11   3.42706e-08 DIIS
   @DF-RHF iter   6:   -76.01100529087577   -2.55795e-13   3.55746e-09 DIIS

  ==> Post-Iterations <==

    Orbital Energies [Eh]
    ---------------------

    Doubly Occupied:                                                      

       1A1   -20.552754     2A1    -1.356562     1B2    -0.734581  
       3A1    -0.553028     1B1    -0.503314  

    Virtual:                                                              

       4A1     0.221542     2B2     0.313938     2B1     0.867783  
       5A1     0.886195     3B2     0.940005     6A1     1.187200  
       4B2     1.260402     7A1     1.652908     8A1    43.340835  

    Final Occupation by Irrep:
             A1    A2    B1    B2 
    DOCC [     3,    0,    1,    1 ]

  Energy converged.

  @DF-RHF Final Energy:   -76.01100529087577

   => Energetics <=

    Nuclear Repulsion Energy =              9.2342337055611541
    One-Electron Energy =                -123.0900018642252860
    Two-Electron Energy =                  37.8447628677883614
    Total Energy =                        -76.0110052908757723



Properties will be evaluated at   0.000000,   0.000000,   0.000000 [a0]

Properties computed using the SCF density matrix

  Nuclear Dipole Moment: [e a0]
     X:     0.0000      Y:     0.0000      Z:     0.8795

  Electronic Dipole Moment: [e a0]
     X:     0.0000      Y:     0.0000      Z:     0.1156

  Dipole Moment: [e a0]
     X:     0.0000      Y:     0.0000      Z:     0.9952     Total:     0.9952

  Dipole Moment: [D]
     X:     0.0000      Y:     0.0000      Z:     2.5295     Total:     2.5295


*** tstop() called on blogin3 at Tue Jan 15 10:56:35 2019
Module time:
	user time   =       0.23 seconds =       0.00 minutes
	system time =       0.00 seconds =       0.00 minutes
	total time  =          0 seconds =       0.00 minutes
Total time:
	user time   =       1.69 seconds =       0.03 minutes
	system time =       0.06 seconds =       0.00 minutes
	total time  =          3 seconds =       0.05 minutes

*** tstart() called on blogin3
*** at Tue Jan 15 10:56:35 2019


         ------------------------------------------------------------
                                   SCF GRAD                          
                          Rob Parrish, Justin Turney,                
                       Andy Simmonett, and Alex Sokolov              
         ------------------------------------------------------------

  ==> Geometry <==

    Molecular point group: c2v
    Full point group: C2v

    Geometry (in Angstrom), charge = 0, multiplicity = 1:

       Center              X                  Y                   Z               Mass       
    ------------   -----------------  -----------------  -----------------  -----------------
         O            0.000000000000     0.000000000000    -0.059134511407    15.994914619560
         H            0.000000000000    -0.791124170463     0.469253804440     1.007825032070
         H            0.000000000000     0.791124170463     0.469253804440     1.007825032070

  Nuclear repulsion =    9.234233705561154

  ==> Basis Set <==

  Basis Set: DZ
    Blend: DZ
    Number of shells: 10
    Number of basis function: 14
    Number of Cartesian functions: 14
    Spherical Harmonics?: false
    Max angular momentum: 1

  ==> DFJKGrad: Density-Fitted SCF Gradients <==

    Gradient:                    1
    J tasked:                  Yes
    K tasked:                  Yes
    wK tasked:                  No
    OpenMP threads:              1
    Integrals threads:           1
    Memory (MB):               375
    Schwarz Cutoff:          0E+00
    Fitting Condition:       1E-12

   => Auxiliary Basis Set <=

  Basis Set: (DZ AUX)
    Blend: DEF2-QZVPP-JKFIT
    Number of shells: 37
    Number of basis function: 133
    Number of Cartesian functions: 133
    Spherical Harmonics?: false
    Max angular momentum: 4


  -Total Gradient:
     Atom            X                  Y                   Z
    ------   -----------------  -----------------  -----------------
       1       -0.000000000000     0.000000000000     0.000007995340
       2        0.000000000000    -0.000014445370    -0.000003997670
       3       -0.000000000000     0.000014445370    -0.000003997670


*** tstop() called on blogin3 at Tue Jan 15 10:56:35 2019
Module time:
	user time   =       0.13 seconds =       0.00 minutes
	system time =       0.00 seconds =       0.00 minutes
	total time  =          0 seconds =       0.00 minutes
Total time:
	user time   =       1.82 seconds =       0.03 minutes
	system time =       0.06 seconds =       0.00 minutes
	total time  =          3 seconds =       0.05 minutes

			-----------------------------------------
			 OPTKING 2.0: for geometry optimizations 
			  - R.A. King,  Bethel University        
			-----------------------------------------

	Previous internal coordinate definitions found.
	---Fragment 1 Geometry and Gradient---
	 O           0.0000000000        0.0000000000       -0.1117480316
	 H           0.0000000000       -1.4950080193        0.8867611772
	 H           0.0000000000        1.4950080193        0.8867611772
	            -0.0000000000        0.0000000000        0.0000079953
	             0.0000000000       -0.0000144454       -0.0000039977
	            -0.0000000000        0.0000144454       -0.0000039977

	---Fragment 1 Intrafragment Coordinates---
	 - Coordinate -           - BOHR/RAD -       - ANG/DEG -
	 R(1,2)           =         1.797796	       0.951353
	 R(1,3)           =         1.797796	       0.951353
	 B(2,1,3)         =         1.963887	     112.522429

	Current energy   :       -76.0110052909

	Energy change for the previous step:
		Projected    :        -0.0000008741
		Actual       :        -0.0000003365

	Performing BFGS update.
	Previous computed or guess Hessian on step 1.
	Steps to be used in Hessian update: 3 2
	Taking RFO optimization step.
	Going to follow RFO solution 1.
	Using RFO vector 1.
	Norm of target step-size    0.00011
	Projected energy change by RFO approximation:        -0.0000000034

	Back-transformation to cartesian coordinates...
	Successfully converged to displaced geometry.

	--- Internal Coordinate Step in ANG or DEG, aJ/ANG or AJ/DEG ---
	 ---------------------------------------------------------------------------
	   Coordinate                Previous        Force       Change         New 
	   ----------                --------       ------       ------       ------
	    1 R(1,2)          =      0.951353    -0.000081    -0.000006     0.951347
	    2 R(1,3)          =      0.951353    -0.000081    -0.000006     0.951347
	    3 B(2,1,3)        =    112.522429    -0.000002    -0.006500   112.515930
	 ---------------------------------------------------------------------------
	Successfully symmetrized geometry.

  ==> Convergence Check <==

  Measures of convergence in internal coordinates in au.
  Criteria marked as inactive (o), active & met (*), and active & unmet ( ).
  ---------------------------------------------------------------------------------------------
   Step     Total Energy     Delta E     MAX Force     RMS Force      MAX Disp      RMS Disp   
  ---------------------------------------------------------------------------------------------
    Convergence Criteria    1.00e-06 *    3.00e-04 *             o    1.20e-03 *             o
  ---------------------------------------------------------------------------------------------
      4     -76.01100529   -3.36e-07 *    2.04e-05 *    1.42e-05 o    1.13e-04 *    6.61e-05 o  ~
  ---------------------------------------------------------------------------------------------


  **** Optimization is complete! (in 4 steps) ****

  ==> Optimization Summary <==

  Measures of convergence in internal coordinates in au.
  --------------------------------------------------------------------------------------------------------------- ~
   Step         Total Energy             Delta E       MAX Force       RMS Force        MAX Disp        RMS Disp  ~
  --------------------------------------------------------------------------------------------------------------- ~
      1     -76.009209687637    -76.009209687637      0.02607633      0.01609031      0.15870694      0.09214897  ~
      2     -76.010910269589     -0.001700581951      0.00620342      0.00552828      0.01742319      0.01243643  ~
      3     -76.011004954411     -0.000094684822      0.00032721      0.00030902      0.00126594      0.00081976  ~
      4     -76.011005290876     -0.000000336465      0.00002040      0.00001424      0.00011344      0.00006608  ~
  --------------------------------------------------------------------------------------------------------------- ~

	Writing optimization data to binary file.
	Final energy is    -76.0110052908758
	Final (previous) structure:
	Cartesian Geometry (in Angstrom)
	    O     0.0000000000   0.0000000000  -0.0591345114
	    H     0.0000000000  -0.7911241705   0.4692538044
	    H     0.0000000000   0.7911241705   0.4692538044
	Saving final (previous) structure.
	Removing binary optimization data file.
			--------------------------
			 OPTKING Finished Execution 
			--------------------------

    Final optimized geometry and variables:
    Molecular point group: c2v
    Full point group: C2v

    Geometry (in Angstrom), charge = 0, multiplicity = 1:

    O       
    H             1          r1
    H             1          r2      2          a1

    a1        =  112.5224294126
    r1        =    0.9513525453
    r2        =    0.9513525453

	Removing binary optimization data file.
	Cleaning optimization helper files.
gradient() will perform analytic gradient computation.

*** tstart() called on blogin3
*** at Tue Jan 15 10:56:35 2019

   => Loading Basis Set <=

    Name: DZ
    Role: ORBITAL
    Keyword: BASIS
    atoms 1   entry O          line   107 file /home/kmoore/miniconda/envs/esenv/share/psi4/basis/dz.gbs 
    atoms 2-3 entry H          line    12 file /home/kmoore/miniconda/envs/esenv/share/psi4/basis/dz.gbs 

    There are an even number of electrons - assuming singlet.
    Specify the multiplicity in the molecule input block.


         ---------------------------------------------------------
                                   SCF
            by Justin Turney, Rob Parrish, Andy Simmonett
                             and Daniel Smith
                              RHF Reference
                        1 Threads,    500 MiB Core
         ---------------------------------------------------------

  ==> Geometry <==

    Molecular point group: c2v
    Full point group: C2v

    Geometry (in Angstrom), charge = 0, multiplicity = 1:

       Center              X                  Y                   Z               Mass       
    ------------   -----------------  -----------------  -----------------  -----------------
         O            0.000000000000     0.000000000000    -0.059134511407    15.994914619560
         H            0.000000000000    -0.791124170463     0.469253804440     1.007825032070
         H            0.000000000000     0.791124170463     0.469253804440     1.007825032070

  Running in c2v symmetry.

  Rotational constants: A =     33.73031  B =     13.36263  C =      9.57098 [cm^-1]
  Rotational constants: A = 1011209.29141  B = 400601.66751  C = 286930.85698 [MHz]
  Nuclear repulsion =    9.234233705561154

  Charge       = 0
  Multiplicity = 1
  Electrons    = 10
  Nalpha       = 5
  Nbeta        = 5

  ==> Algorithm <==

  SCF Algorithm Type is DF.
  DIIS enabled.
  MOM disabled.
  Fractional occupation disabled.
  Guess Type is SAD.
  Energy threshold   = 1.00e-08
  Density threshold  = 1.00e-08
  Integral threshold = 0.00e+00

  ==> Primary Basis <==

  Basis Set: DZ
    Blend: DZ
    Number of shells: 10
    Number of basis function: 14
    Number of Cartesian functions: 14
    Spherical Harmonics?: false
    Max angular momentum: 1

   => Loading Basis Set <=

    Name: (DZ AUX)
    Role: JKFIT
    Keyword: DF_BASIS_SCF
    atoms 1   entry O          line   323 file /home/kmoore/miniconda/envs/esenv/share/psi4/basis/def2-qzvpp-jkfit.gbs 
    atoms 2-3 entry H          line    23 file /home/kmoore/miniconda/envs/esenv/share/psi4/basis/def2-qzvpp-jkfit.gbs 

  ==> Pre-Iterations <==

   -------------------------------------------------------
    Irrep   Nso     Nmo     Nalpha   Nbeta   Ndocc  Nsocc
   -------------------------------------------------------
     A1         8       8       0       0       0       0
     A2         0       0       0       0       0       0
     B1         2       2       0       0       0       0
     B2         4       4       0       0       0       0
   -------------------------------------------------------
    Total      14      14       5       5       5       0
   -------------------------------------------------------

  ==> Integral Setup <==

  ==> DiskDFJK: Density-Fitted J/K Matrices <==

    J tasked:                  Yes
    K tasked:                  Yes
    wK tasked:                  No
    OpenMP threads:              1
    Integrals threads:           1
    Memory (MB):               375
    Algorithm:                Core
    Integral Cache:           NONE
    Schwarz Cutoff:          1E-12
    Fitting Condition:       1E-12

   => Auxiliary Basis Set <=

  Basis Set: (DZ AUX)
    Blend: DEF2-QZVPP-JKFIT
    Number of shells: 37
    Number of basis function: 133
    Number of Cartesian functions: 133
    Spherical Harmonics?: false
    Max angular momentum: 4

  Minimum eigenvalue in the overlap matrix is 5.7386941462E-02.
  Using Symmetric Orthogonalization.

  SCF Guess: Superposition of Atomic Densities via on-the-fly atomic UHF.

  ==> Iterations <==

                           Total Energy        Delta E     RMS |[F,P]|

   @DF-RHF iter   0:   -75.94084753489751   -7.59408e+01   1.83256e-01 
   @DF-RHF iter   1:   -75.98223296100564   -4.13854e-02   2.74078e-02 
   @DF-RHF iter   2:   -76.00397590554815   -2.17429e-02   1.46070e-02 DIIS
   @DF-RHF iter   3:   -76.01076870634589   -6.79280e-03   1.90787e-03 DIIS
   @DF-RHF iter   4:   -76.01098772522974   -2.19019e-04   3.51193e-04 DIIS
   @DF-RHF iter   5:   -76.01100450618551   -1.67810e-05   7.52890e-05 DIIS
   @DF-RHF iter   6:   -76.01100528427125   -7.78086e-07   8.85014e-06 DIIS
   @DF-RHF iter   7:   -76.01100529075471   -6.48346e-09   1.03550e-06 DIIS
   @DF-RHF iter   8:   -76.01100529087057   -1.15861e-10   1.36002e-07 DIIS
   @DF-RHF iter   9:   -76.01100529087151   -9.37916e-13   2.09919e-08 DIIS
   @DF-RHF iter  10:   -76.01100529087161   -9.94760e-14   2.81892e-09 DIIS

  ==> Post-Iterations <==

    Orbital Energies [Eh]
    ---------------------

    Doubly Occupied:                                                      

       1A1   -20.552754     2A1    -1.356562     1B2    -0.734581  
       3A1    -0.553028     1B1    -0.503314  

    Virtual:                                                              

       4A1     0.221542     2B2     0.313938     2B1     0.867783  
       5A1     0.886195     3B2     0.940005     6A1     1.187200  
       4B2     1.260402     7A1     1.652908     8A1    43.340835  

    Final Occupation by Irrep:
             A1    A2    B1    B2 
    DOCC [     3,    0,    1,    1 ]

  Energy converged.

  @DF-RHF Final Energy:   -76.01100529087161

   => Energetics <=

    Nuclear Repulsion Energy =              9.2342337055611541
    One-Electron Energy =                -123.0900018795550892
    Two-Electron Energy =                  37.8447628831223355
    Total Energy =                        -76.0110052908715943



Properties will be evaluated at   0.000000,   0.000000,   0.000000 [a0]

Properties computed using the SCF density matrix

  Nuclear Dipole Moment: [e a0]
     X:     0.0000      Y:     0.0000      Z:     0.8795

  Electronic Dipole Moment: [e a0]
     X:     0.0000      Y:     0.0000      Z:     0.1156

  Dipole Moment: [e a0]
     X:     0.0000      Y:     0.0000      Z:     0.9952     Total:     0.9952

  Dipole Moment: [D]
     X:     0.0000      Y:     0.0000      Z:     2.5295     Total:     2.5295


*** tstop() called on blogin3 at Tue Jan 15 10:56:36 2019
Module time:
	user time   =       0.47 seconds =       0.01 minutes
	system time =       0.01 seconds =       0.00 minutes
	total time  =          1 seconds =       0.02 minutes
Total time:
	user time   =       2.30 seconds =       0.04 minutes
	system time =       0.07 seconds =       0.00 minutes
	total time  =          4 seconds =       0.07 minutes

*** tstart() called on blogin3
*** at Tue Jan 15 10:56:36 2019


         ------------------------------------------------------------
                                   SCF GRAD                          
                          Rob Parrish, Justin Turney,                
                       Andy Simmonett, and Alex Sokolov              
         ------------------------------------------------------------

  ==> Geometry <==

    Molecular point group: c2v
    Full point group: C2v

    Geometry (in Angstrom), charge = 0, multiplicity = 1:

       Center              X                  Y                   Z               Mass       
    ------------   -----------------  -----------------  -----------------  -----------------
         O            0.000000000000     0.000000000000    -0.059134511407    15.994914619560
         H            0.000000000000    -0.791124170463     0.469253804440     1.007825032070
         H            0.000000000000     0.791124170463     0.469253804440     1.007825032070

  Nuclear repulsion =    9.234233705561154

  ==> Basis Set <==

  Basis Set: DZ
    Blend: DZ
    Number of shells: 10
    Number of basis function: 14
    Number of Cartesian functions: 14
    Spherical Harmonics?: false
    Max angular momentum: 1

  ==> DFJKGrad: Density-Fitted SCF Gradients <==

    Gradient:                    1
    J tasked:                  Yes
    K tasked:                  Yes
    wK tasked:                  No
    OpenMP threads:              1
    Integrals threads:           1
    Memory (MB):               375
    Schwarz Cutoff:          0E+00
    Fitting Condition:       1E-12

   => Auxiliary Basis Set <=

  Basis Set: (DZ AUX)
    Blend: DEF2-QZVPP-JKFIT
    Number of shells: 37
    Number of basis function: 133
    Number of Cartesian functions: 133
    Spherical Harmonics?: false
    Max angular momentum: 4


  -Total Gradient:
     Atom            X                  Y                   Z
    ------   -----------------  -----------------  -----------------
       1       -0.000000000000     0.000000000000     0.000007925393
       2        0.000000000000    -0.000014495936    -0.000003962696
       3       -0.000000000000     0.000014495936    -0.000003962696


*** tstop() called on blogin3 at Tue Jan 15 10:56:36 2019
Module time:
	user time   =       0.13 seconds =       0.00 minutes
	system time =       0.00 seconds =       0.00 minutes
	total time  =          0 seconds =       0.00 minutes
Total time:
	user time   =       2.43 seconds =       0.04 minutes
	system time =       0.07 seconds =       0.00 minutes
	total time  =          4 seconds =       0.07 minutes

  Based on options and gradient (rms=7.56E-06), recommend projecting translations and projecting rotations.
hessian() will perform analytic frequency computation.

*** tstart() called on blogin3
*** at Tue Jan 15 10:56:36 2019

   => Loading Basis Set <=

    Name: DZ
    Role: ORBITAL
    Keyword: BASIS
    atoms 1   entry O          line   107 file /home/kmoore/miniconda/envs/esenv/share/psi4/basis/dz.gbs 
    atoms 2-3 entry H          line    12 file /home/kmoore/miniconda/envs/esenv/share/psi4/basis/dz.gbs 


         ---------------------------------------------------------
                                   SCF
            by Justin Turney, Rob Parrish, Andy Simmonett
                             and Daniel Smith
                              RHF Reference
                        1 Threads,    500 MiB Core
         ---------------------------------------------------------

  ==> Geometry <==

    Molecular point group: c2v
    Full point group: C2v

    Geometry (in Angstrom), charge = 0, multiplicity = 1:

       Center              X                  Y                   Z               Mass       
    ------------   -----------------  -----------------  -----------------  -----------------
         O            0.000000000000     0.000000000000    -0.059134511407    15.994914619560
         H            0.000000000000    -0.791124170463     0.469253804440     1.007825032070
         H            0.000000000000     0.791124170463     0.469253804440     1.007825032070

  Running in c2v symmetry.

  Rotational constants: A =     33.73031  B =     13.36263  C =      9.57098 [cm^-1]
  Rotational constants: A = 1011209.29141  B = 400601.66751  C = 286930.85698 [MHz]
  Nuclear repulsion =    9.234233705561154

  Charge       = 0
  Multiplicity = 1
  Electrons    = 10
  Nalpha       = 5
  Nbeta        = 5

  ==> Algorithm <==

  SCF Algorithm Type is DF.
  DIIS enabled.
  MOM disabled.
  Fractional occupation disabled.
  Guess Type is SAD.
  Energy threshold   = 1.00e-08
  Density threshold  = 1.00e-08
  Integral threshold = 0.00e+00

  ==> Primary Basis <==

  Basis Set: DZ
    Blend: DZ
    Number of shells: 10
    Number of basis function: 14
    Number of Cartesian functions: 14
    Spherical Harmonics?: false
    Max angular momentum: 1

   => Loading Basis Set <=

    Name: (DZ AUX)
    Role: JKFIT
    Keyword: DF_BASIS_SCF
    atoms 1   entry O          line   323 file /home/kmoore/miniconda/envs/esenv/share/psi4/basis/def2-qzvpp-jkfit.gbs 
    atoms 2-3 entry H          line    23 file /home/kmoore/miniconda/envs/esenv/share/psi4/basis/def2-qzvpp-jkfit.gbs 

  ==> Pre-Iterations <==

   -------------------------------------------------------
    Irrep   Nso     Nmo     Nalpha   Nbeta   Ndocc  Nsocc
   -------------------------------------------------------
     A1         8       8       0       0       0       0
     A2         0       0       0       0       0       0
     B1         2       2       0       0       0       0
     B2         4       4       0       0       0       0
   -------------------------------------------------------
    Total      14      14       5       5       5       0
   -------------------------------------------------------

  ==> Integral Setup <==

  ==> DiskDFJK: Density-Fitted J/K Matrices <==

    J tasked:                  Yes
    K tasked:                  Yes
    wK tasked:                  No
    OpenMP threads:              1
    Integrals threads:           1
    Memory (MB):               375
    Algorithm:                Core
    Integral Cache:           NONE
    Schwarz Cutoff:          1E-12
    Fitting Condition:       1E-12

   => Auxiliary Basis Set <=

  Basis Set: (DZ AUX)
    Blend: DEF2-QZVPP-JKFIT
    Number of shells: 37
    Number of basis function: 133
    Number of Cartesian functions: 133
    Spherical Harmonics?: false
    Max angular momentum: 4

  Minimum eigenvalue in the overlap matrix is 5.7386941462E-02.
  Using Symmetric Orthogonalization.

  SCF Guess: Superposition of Atomic Densities via on-the-fly atomic UHF.

  ==> Iterations <==

                           Total Energy        Delta E     RMS |[F,P]|

   @DF-RHF iter   0:   -75.92792735300927   -7.59279e+01   1.82797e-01 
   @DF-RHF iter   1:   -75.98649675420930   -5.85694e-02   2.54317e-02 
   @DF-RHF iter   2:   -76.00501047503896   -1.85137e-02   1.34867e-02 DIIS
   @DF-RHF iter   3:   -76.01080646568226   -5.79599e-03   1.74830e-03 DIIS
   @DF-RHF iter   4:   -76.01098994671241   -1.83481e-04   3.26824e-04 DIIS
   @DF-RHF iter   5:   -76.01100461270217   -1.46660e-05   6.99778e-05 DIIS
   @DF-RHF iter   6:   -76.01100528683156   -6.74129e-07   7.46406e-06 DIIS
   @DF-RHF iter   7:   -76.01100529079078   -3.95922e-09   8.51282e-07 DIIS
   @DF-RHF iter   8:   -76.01100529086513   -7.43512e-11   1.13845e-07 DIIS
   @DF-RHF iter   9:   -76.01100529086600   -8.66862e-13   1.69289e-08 DIIS
   @DF-RHF iter  10:   -76.01100529086605   -5.68434e-14   2.30929e-09 DIIS

  ==> Post-Iterations <==

    Orbital Energies [Eh]
    ---------------------

    Doubly Occupied:                                                      

       1A1   -20.552754     2A1    -1.356562     1B2    -0.734581  
       3A1    -0.553028     1B1    -0.503314  

    Virtual:                                                              

       4A1     0.221542     2B2     0.313938     2B1     0.867783  
       5A1     0.886195     3B2     0.940005     6A1     1.187200  
       4B2     1.260402     7A1     1.652908     8A1    43.340835  

    Final Occupation by Irrep:
             A1    A2    B1    B2 
    DOCC [     3,    0,    1,    1 ]

  Energy converged.

  @DF-RHF Final Energy:   -76.01100529086605

   => Energetics <=

    Nuclear Repulsion Energy =              9.2342337055611541
    One-Electron Energy =                -123.0900018680932675
    Two-Electron Energy =                  37.8447628716660702
    Total Energy =                        -76.0110052908660521



Properties will be evaluated at   0.000000,   0.000000,   0.000000 [a0]

Properties computed using the SCF density matrix

  Nuclear Dipole Moment: [e a0]
     X:     0.0000      Y:     0.0000      Z:     0.8795

  Electronic Dipole Moment: [e a0]
     X:     0.0000      Y:     0.0000      Z:     0.1156

  Dipole Moment: [e a0]
     X:     0.0000      Y:     0.0000      Z:     0.9952     Total:     0.9952

  Dipole Moment: [D]
     X:     0.0000      Y:     0.0000      Z:     2.5295     Total:     2.5295


*** tstop() called on blogin3 at Tue Jan 15 10:56:36 2019
Module time:
	user time   =       0.46 seconds =       0.01 minutes
	system time =       0.00 seconds =       0.00 minutes
	total time  =          0 seconds =       0.00 minutes
Total time:
	user time   =       2.90 seconds =       0.05 minutes
	system time =       0.07 seconds =       0.00 minutes
	total time  =          4 seconds =       0.07 minutes

*** tstart() called on blogin3
*** at Tue Jan 15 10:56:36 2019


         ------------------------------------------------------------
                                   SCF HESS                          
                          Rob Parrish, Justin Turney,                
                       Andy Simmonett, and Alex Sokolov              
         ------------------------------------------------------------

  ==> Geometry <==

    Molecular point group: c2v
    Full point group: C2v

    Geometry (in Angstrom), charge = 0, multiplicity = 1:

       Center              X                  Y                   Z               Mass       
    ------------   -----------------  -----------------  -----------------  -----------------
         O            0.000000000000     0.000000000000    -0.059134511407    15.994914619560
         H            0.000000000000    -0.791124170463     0.469253804440     1.007825032070
         H            0.000000000000     0.791124170463     0.469253804440     1.007825032070

  Nuclear repulsion =    9.234233705561154

  ==> Basis Set <==

  Basis Set: DZ
    Blend: DZ
    Number of shells: 10
    Number of basis function: 14
    Number of Cartesian functions: 14
    Spherical Harmonics?: false
    Max angular momentum: 1

  ==> DFJKGrad: Density-Fitted SCF Gradients <==

    Gradient:                    2
    J tasked:                  Yes
    K tasked:                  Yes
    wK tasked:                  No
    OpenMP threads:              1
    Integrals threads:           1
    Memory (MB):               375
    Schwarz Cutoff:          0E+00
    Fitting Condition:       1E-12

   => Auxiliary Basis Set <=

  Basis Set: (DZ AUX)
    Blend: DEF2-QZVPP-JKFIT
    Number of shells: 37
    Number of basis function: 133
    Number of Cartesian functions: 133
    Spherical Harmonics?: false
    Max angular momentum: 4

  ==> DiskDFJK: Density-Fitted J/K Matrices <==

    J tasked:                  Yes
    K tasked:                  Yes
    wK tasked:                  No
    OpenMP threads:              1
    Integrals threads:           1
    Memory (MB):               450
    Algorithm:                Core
    Integral Cache:           NONE
    Schwarz Cutoff:          1E-12
    Fitting Condition:       1E-12

   => Auxiliary Basis Set <=

  Basis Set: (DZ AUX)
    Blend: DEF2-QZVPP-JKFIT
    Number of shells: 37
    Number of basis function: 133
    Number of Cartesian functions: 133
    Spherical Harmonics?: false
    Max angular momentum: 4


         ------------------------------------------------------------
                                     CPHF                           
                                  Rob Parrish                       
         ------------------------------------------------------------

  ==> Geometry <==

    Molecular point group: c2v
    Full point group: C2v

    Geometry (in Angstrom), charge = 0, multiplicity = 1:

       Center              X                  Y                   Z               Mass       
    ------------   -----------------  -----------------  -----------------  -----------------
         O            0.000000000000     0.000000000000    -0.059134511407    15.994914619560
         H            0.000000000000    -0.791124170463     0.469253804440     1.007825032070
         H            0.000000000000     0.791124170463     0.469253804440     1.007825032070

  Nuclear repulsion =    9.234233705561154
  Reference energy  =  -76.011005290866052

  ==> Basis Set <==

  Basis Set: DZ
    Blend: DZ
    Number of shells: 10
    Number of basis function: 14
    Number of Cartesian functions: 14
    Spherical Harmonics?: false
    Max angular momentum: 1

  ==> CGRSolver (by Rob Parrish) <==

   Number of roots    =         9
   Preconditioning    =    JACOBI
   Convergence cutoff =     1E-06
   Maximum iterations =       100

  ==> CPHFRHamiltonian (by Rob Parrish) <== 

  ==> DiskDFJK: Density-Fitted J/K Matrices <==

    J tasked:                  Yes
    K tasked:                  Yes
    wK tasked:                  No
    OpenMP threads:              1
    Integrals threads:           1
    Memory (MB):               450
    Algorithm:                Core
    Integral Cache:           NONE
    Schwarz Cutoff:          1E-12
    Fitting Condition:       1E-12

   => Auxiliary Basis Set <=

  Basis Set: (DZ AUX)
    Blend: DEF2-QZVPP-JKFIT
    Number of shells: 37
    Number of basis function: 133
    Number of Cartesian functions: 133
    Spherical Harmonics?: false
    Max angular momentum: 4

  ==> CPHF Iterations <==

  => Iterations <=

             Iter  Converged  Remaining    Residual
  CGR           1          0          9   1.399E-01
  CGR           2          0          9   2.382E-02
  CGR           3          0          9   3.449E-03
  CGR           4          0          9   4.863E-04
  CGR           5          0          9   8.820E-05
  CGR           6          2          7   2.084E-05
  CGR           7          4          5   3.347E-06
  CGR           8          9          0   4.762E-07

    CGRSolver converged.


*** tstop() called on blogin3 at Tue Jan 15 10:56:38 2019
Module time:
	user time   =       1.26 seconds =       0.02 minutes
	system time =       0.06 seconds =       0.00 minutes
	total time  =          2 seconds =       0.03 minutes
Total time:
	user time   =       4.16 seconds =       0.07 minutes
	system time =       0.13 seconds =       0.00 minutes
	total time  =          6 seconds =       0.10 minutes


  ==> Harmonic Vibrational Analysis <==

  non-mass-weighted Hessian:       Symmetric? True   Hermitian? True   Lin Dep Dim?  0 (0)
  projection of translations (True) and rotations (True) removed 6 degrees of freedom (6)
  total projector:                 Symmetric? True   Hermitian? True   Lin Dep Dim?  6 (6)
  mass-weighted Hessian:           Symmetric? True   Hermitian? True   Lin Dep Dim?  0 (0)
  pre-proj  low-frequency mode:    0.0000i [cm^-1]
  pre-proj  low-frequency mode:    0.0000i [cm^-1]
  pre-proj  low-frequency mode:    0.0027  [cm^-1]
  pre-proj  low-frequency mode:    0.0055  [cm^-1]
  pre-proj  low-frequency mode:   12.1753  [cm^-1]
  pre-proj  low-frequency mode:   15.9263  [cm^-1]
  pre-proj  all modes:['10.8576i' '0.0076i' '0.0027' '0.0055' '12.1753' '15.9263' '1710.6370'
 '4028.2741' '4204.1637']
  projected mass-weighted Hessian: Symmetric? True   Hermitian? True   Lin Dep Dim?  6 (6)
  post-proj low-frequency mode:    0.0001i [cm^-1] (TR)
  post-proj low-frequency mode:    0.0000i [cm^-1] (TR)
  post-proj low-frequency mode:    0.0000i [cm^-1] (TR)
  post-proj low-frequency mode:    0.0001  [cm^-1] (TR)
  post-proj low-frequency mode:    0.0001  [cm^-1] (TR)
  post-proj low-frequency mode:    0.0001  [cm^-1] (TR)
  post-proj  all modes:['0.0001i' '0.0000i' '0.0000i' '0.0001' '0.0001' '0.0001' '1710.6370'
 '4028.2741' '4204.1637']

  Vibration                       7                   8                   9           
  Freq [cm^-1]                1710.6370           4028.2741           4204.1637       
  Irrep                           A1                  A1                  B2          
  Reduced mass [u]              1.0916              1.0369              1.0897        
  Force const [mDyne/A]         1.8821              9.9139             11.3476        
  Turning point v=0 [a0]        0.2539              0.1698              0.1621        
  RMS dev v=0 [a0 u^1/2]        0.1876              0.1222              0.1197        
  Char temp [K]               2461.2220           5795.7808           6048.8464       
  ----------------------------------------------------------------------------------
      1   O                0.00 -0.00 -0.07   -0.00  0.00  0.04    0.00 -0.07  0.00   
      2   H               -0.00  0.38  0.59   -0.00  0.61 -0.35   -0.00  0.59 -0.39   
      3   H               -0.00 -0.38  0.59    0.00 -0.61 -0.35    0.00  0.59  0.39   

  ==> Thermochemistry Components <==

  Entropy, S
    Electronic S            0.000 [cal/(mol K)]        0.000 [J/(mol K)]       0.00000000 [mEh/K] (multiplicity = 1)
    Translational S        34.608 [cal/(mol K)]      144.801 [J/(mol K)]       0.05515186 [mEh/K] (mol. weight = 18.0106 [u], P = 101325.00 [Pa])
    Rotational S           10.324 [cal/(mol K)]       43.195 [J/(mol K)]       0.01645200 [mEh/K] (symmetry no. = 2)
    Vibrational S           0.005 [cal/(mol K)]        0.020 [J/(mol K)]       0.00000762 [mEh/K]
  Total S                  44.937 [cal/(mol K)]      188.016 [J/(mol K)]       0.07161148 [mEh/K]
  Correction S              0.000 [cal/(mol K)]        0.000 [J/(mol K)]       0.00000000 [mEh/K]

  Constant volume heat capacity, Cv
    Electronic Cv           0.000 [cal/(mol K)]        0.000 [J/(mol K)]       0.00000000 [mEh/K]
    Translational Cv        2.981 [cal/(mol K)]       12.472 [J/(mol K)]       0.00475022 [mEh/K]
    Rotational Cv           2.981 [cal/(mol K)]       12.472 [J/(mol K)]       0.00475022 [mEh/K]
    Vibrational Cv          0.035 [cal/(mol K)]        0.147 [J/(mol K)]       0.00005614 [mEh/K]
  Total Cv                  5.997 [cal/(mol K)]       25.091 [J/(mol K)]       0.00955658 [mEh/K]
  Correction Cv             0.000 [cal/(mol K)]        0.000 [J/(mol K)]       0.00000000 [mEh/K]

  Constant pressure heat capacity, Cp
    Electronic Cp           0.000 [cal/(mol K)]        0.000 [J/(mol K)]       0.00000000 [mEh/K]
    Translational Cp        4.968 [cal/(mol K)]       20.786 [J/(mol K)]       0.00791704 [mEh/K]
    Rotational Cp           2.981 [cal/(mol K)]       12.472 [J/(mol K)]       0.00475022 [mEh/K]
    Vibrational Cp          0.035 [cal/(mol K)]        0.147 [J/(mol K)]       0.00005614 [mEh/K]
  Total Cp                  7.984 [cal/(mol K)]       33.405 [J/(mol K)]       0.01272339 [mEh/K]
  Correction Cp             0.000 [cal/(mol K)]        0.000 [J/(mol K)]       0.00000000 [mEh/K]

  ==> Thermochemistry Energy Analysis <==

  Raw electronic energy, E0
  Total E0, Electronic energy at well bottom at 0 [K]                  -76.01100529 [Eh]

  Zero-point energy, ZPE_vib = Sum_i nu_i / 2
    Electronic ZPE          0.000 [kcal/mol]        0.000 [kJ/mol]       0.00000000 [Eh]
    Translational ZPE       0.000 [kcal/mol]        0.000 [kJ/mol]       0.00000000 [Eh]
    Rotational ZPE          0.000 [kcal/mol]        0.000 [kJ/mol]       0.00000000 [Eh]
    Vibrational ZPE        14.214 [kcal/mol]       59.473 [kJ/mol]       0.02265199 [Eh]        4971.536 [cm^-1]
  Correction ZPE           14.214 [kcal/mol]       59.473 [kJ/mol]       0.02265199 [Eh]        4971.536 [cm^-1]
  Total ZPE, Electronic energy at 0 [K]                                -75.98835330 [Eh]

  Thermal Energy, E (includes ZPE)
    Electronic E            0.000 [kcal/mol]        0.000 [kJ/mol]       0.00000000 [Eh]
    Translational E         0.889 [kcal/mol]        3.718 [kJ/mol]       0.00141628 [Eh]
    Rotational E            0.889 [kcal/mol]        3.718 [kJ/mol]       0.00141628 [Eh]
    Vibrational E          14.216 [kcal/mol]       59.478 [kJ/mol]       0.02265401 [Eh]
  Correction E             15.993 [kcal/mol]       66.915 [kJ/mol]       0.02548657 [Eh]
  Total E, Electronic energy at  298.15 [K]                            -75.98551872 [Eh]

  Enthalpy, H_trans = E_trans + k_B * T
    Electronic H            0.000 [kcal/mol]        0.000 [kJ/mol]       0.00000000 [Eh]
    Translational H         1.481 [kcal/mol]        6.197 [kJ/mol]       0.00236046 [Eh]
    Rotational H            0.889 [kcal/mol]        3.718 [kJ/mol]       0.00141628 [Eh]
    Vibrational H          14.216 [kcal/mol]       59.478 [kJ/mol]       0.02265401 [Eh]
  Correction H             16.586 [kcal/mol]       69.394 [kJ/mol]       0.02643076 [Eh]
  Total H, Enthalpy at  298.15 [K]                                     -75.98457453 [Eh]

  Gibbs free energy, G = H - T * S
    Electronic G            0.000 [kcal/mol]        0.000 [kJ/mol]       0.00000000 [Eh]
    Translational G        -8.837 [kcal/mol]      -36.975 [kJ/mol]      -0.01408306 [Eh]
    Rotational G           -2.189 [kcal/mol]       -9.160 [kJ/mol]      -0.00348889 [Eh]
    Vibrational G          14.214 [kcal/mol]       59.472 [kJ/mol]       0.02265174 [Eh]
  Correction G              3.188 [kcal/mol]       13.337 [kJ/mol]       0.00507979 [Eh]
  Total G, Free enthalpy at  298.15 [K]                                -76.00592550 [Eh]

    Psi4 stopped on: Tuesday, 15 January 2019 10:56AM
    Psi4 wall time for execution: 0:00:05.99

*** Psi4 exiting successfully. Buy a developer a beer!
