
 Primary working directories    : /scratch/kmoore
 Secondary working directories  : /scratch/kmoore
 Wavefunction directory         : /scratch/kmoore/
 Main file repository           : /scratch/kmoore/

 SHA1      : b6b3a4772808bb2d43777f23454e145ddfe12dc3
 NAME      : 2015.1.1
 ARCHNAME  : linux/x86_64
 FC        : /soft/mvapich2/2.2b_psm/intel-15.0/bin/mpif90
 BLASLIB   : -L/soft/intel/15.0.1/composer_xe_2015.0.090/mkl/lib/intel64 -lmkl_intel_ilp64 -lmkl_sequential -lmkl_core
 id        : anlgov

 Nodes     nprocs
 b448         3
 Number of processes for MPI-2 version of Molpro:   nprocs(total)=    4   nprocs(compute)=    3   nprocs(helper)=    1

 Using customized tuning parameters: mindgm=1; mindgv=20; mindgc=4; mindgr=1; noblas=0; minvec=7
 default implementation of scratch files=sf  

 memory,1000,m
 gthresh,energy=1.0d-10,orbital=1.0d-10
 
 angstrom
 Geometry = {
 C         -0.00000        0.00000        0.00000
 H          0.00000        0.54847       -0.90581
 H         -0.00000        0.54847        0.90581
 }
 
 basis=cc-pVDZ
 set,spin=2
 
 {rhf}
 {uccsd(t)}
 {optg}
 {freq}
 

 Variables initialized (889), CPU time= 0.00 sec
 Commands  initialized (702), CPU time= 0.01 sec, 572 directives.
 Default parameters read. Elapsed time= 0.06 sec

 Checking input...
 Passed
1


                                         ***  PROGRAM SYSTEM MOLPRO  ***
                                       Copyright, TTI GmbH Stuttgart, 2015
                                    Version 2015.1 linked Jan  8 2016 07:59:11


 **********************************************************************************************************************************
 LABEL *                                                                                 
  64 bit mpp version                                                                     DATE: 11-Jan-19          TIME: 07:30:59  
 **********************************************************************************************************************************

 SHA1:             b6b3a4772808bb2d43777f23454e145ddfe12dc3
 **********************************************************************************************************************************

 THRESHOLDS:

 ZERO    =  1.00D-12  ONEINT  =  1.00D-12  TWOINT  =  1.00D-11  PREFAC  =  1.00D-14  LOCALI  =  1.00D-09  EORDER  =  1.00D-04
 ENERGY  =  1.00D-10  ETEST   =  0.00D+00  EDENS   =  0.00D+00  THRDEDEF=  1.00D-06  GRADIENT=  1.00D-02  STEP    =  1.00D-03
 ORBITAL =  1.00D-10  CIVEC   =  1.00D-05  COEFF   =  1.00D-04  PRINTCI =  5.00D-02  PUNCHCI =  9.90D+01  OPTGRAD =  3.00D-04
 OPTENERG=  1.00D-06  OPTSTEP =  3.00D-04  THRGRAD =  1.00D-10  COMPRESS=  1.00D-11  VARMIN  =  1.00D-07  VARMAX  =  1.00D-03
 THRDOUB =  0.00D+00  THRDIV  =  1.00D-05  THRRED  =  1.00D-07  THRPSP  =  1.00D+00  THRDC   =  1.00D-10  THRCS   =  1.00D-10
 THRNRM  =  1.00D-08  THREQ   =  0.00D+00  THRDE   =  1.00D+00  THRREF  =  1.00D-05  SPARFAC =  1.00D+00  THRDLP  =  1.00D-07
 THRDIA  =  1.00D-10  THRDLS  =  1.00D-07  THRGPS  =  0.00D+00  THRKEX  =  0.00D+00  THRDIS  =  2.00D-01  THRVAR  =  1.00D-10
 THRLOC  =  1.00D-06  THRGAP  =  1.00D-06  THRLOCT = -1.00D+00  THRGAPT = -1.00D+00  THRORB  =  1.00D-06  THRMLTP =  0.00D+00
 THRCPQCI=  1.00D-10  KEXTA   =  0.00D+00  THRCOARS=  0.00D+00  SYMTOL  =  1.00D-06  GRADTOL =  1.00D-06  THROVL  =  1.00D-08
 THRORTH =  1.00D-08  GRID    =  1.00D-06  GRIDMAX =  1.00D-03  DTMAX   =  0.00D+00  THROCCDE=  1.00D-01  THROCCDE=  1.00D-01


 ZUNIT=ANG
 

Geometry recognized as XYZ


 Variable memory set to 1000000000 words,  buffer space   230000 words

 SETTING BASIS          =    CC-PVDZ
 SETTING SPIN           =         2.00000000                                  


 Recomputing integrals since basis changed


 Using spherical harmonics

 Library entry C      S cc-pVDZ              selected for orbital group  1
 Library entry C      P cc-pVDZ              selected for orbital group  1
 Library entry C      D cc-pVDZ              selected for orbital group  1
 Library entry H      S cc-pVDZ              selected for orbital group  2
 Library entry H      P cc-pVDZ              selected for orbital group  2

1PROGRAM * SEWARD (Integral evaluation for generally contracted gaussian basis sets)     Author: Roland Lindh, 1990

 Geometry written to block  1 of record 700


 Point group  C2v 



 ATOMIC COORDINATES

 NR  ATOM    CHARGE       X              Y              Z

   1  C       6.00    0.000000000    0.000000000    0.000000000
   2  H       1.00    0.000000000    1.036458088   -1.711732821
   3  H       1.00    0.000000000    1.036458088    1.711732821

 Bond lengths in Bohr (Angstrom)

 1-2  2.001068369  1-3  2.001068369
     ( 1.058919778)     ( 1.058919778)

 Bond angles

  2-1-3  117.61000015

 NUCLEAR CHARGE:                    8
 NUMBER OF PRIMITIVE AOS:          41
 NUMBER OF SYMMETRY AOS:           40
 NUMBER OF CONTRACTIONS:           24   (  11A1  +   4B1  +   7B2  +   2A2  )
 NUMBER OF CORE ORBITALS:           1   (   1A1  +   0B1  +   0B2  +   0A2  )
 NUMBER OF VALENCE ORBITALS:        6   (   3A1  +   1B1  +   2B2  +   0A2  )


 NUCLEAR REPULSION ENERGY    6.28889827

 Eigenvalues of metric

         1 0.162E-01 0.388E-01 0.116E+00 0.156E+00 0.336E+00 0.963E+00 0.102E+01 0.122E+01
         2 0.176E+00 0.501E+00 0.117E+01 0.217E+01
         3 0.352E-01 0.537E-01 0.132E+00 0.623E+00 0.110E+01 0.135E+01 0.283E+01
         4 0.423E+00 0.156E+01


 Contracted 2-electron integrals neglected if value below      1.0D-14
 AO integral compression algorithm  1   Integral accuracy      1.0D-14

     0.786 MB (compressed) written to integral file (100.0%)

     Node minimum: 0.262 MB, node maximum: 0.262 MB


 NUMBER OF SORTED TWO-ELECTRON INTEGRALS:       4533.     BUFFER LENGTH:  32768
 NUMBER OF SEGMENTS:   1  SEGMENT LENGTH:       4533      RECORD LENGTH: 524288

 Memory used in sort:       0.56 MW

 SORT1 READ       19290. AND WROTE        4192. INTEGRALS IN      1 RECORDS. CPU TIME:     0.00 SEC, REAL TIME:     0.01 SEC
 SORT2 READ       12657. AND WROTE       13826. INTEGRALS IN      3 RECORDS. CPU TIME:     0.00 SEC, REAL TIME:     0.00 SEC

 Node minimum:        4366.  Node maximum:        4927. integrals

 OPERATOR DM      FOR CENTER  0  COORDINATES:    0.000000    0.000000    0.000000


 **********************************************************************************************************************************
 DATASETS  * FILE   NREC   LENGTH (MB)   RECORD NAMES
              1      18       19.10       500      610      700      900      950      970     1000      129      960     1100   
                                          VAR    BASINP    GEOM    SYMINP    ZMAT    AOBASIS   BASIS     P2S    ABASIS      S 
                                         1400     1410     1200     1210     1080     1600     1650     1700   
                                           T        V       H0       H01     AOSYM     SMH    MOLCAS    OPER   

 PROGRAMS   *        TOTAL       INT
 CPU TIMES  *         0.31      0.19
 REAL TIME  *         0.74 SEC
 DISK USED  *        12.72 MB      
 GA USED    *         0.00 MB       (max)       0.00 MB       (current)
 **********************************************************************************************************************************

1PROGRAM * RHF-SCF (OPEN SHELL)       Authors: W. Meyer, H.-J. Werner


 NUMBER OF ELECTRONS:       5+    3-
 CONVERGENCE THRESHOLDS:    1.00E-10 (Density)    1.00E-11 (Energy)
 MAX. NUMBER OF ITERATIONS:       60
 INTERPOLATION TYPE:            DIIS
 INTERPOLATION STEPS:              2 (START)      1 (STEP)
 LEVEL SHIFTS:                 -0.60 (CLOSED) -0.30 (OPEN) 



 Orbital guess generated from atomic densities. Full valence occupancy:    4   1   2   0

 Molecular orbital dump at record        2100.2

 Initial alpha occupancy:   3   1   1   0
 Initial beta  occupancy:   2   0   1   0
 Wave function symmetry:    2

 ITERATION    DDIFF          GRAD             ENERGY        2-EL.EN.            DIPOLE MOMENTS         DIIS   ORB.
    1      0.000D+00      0.000D+00       -38.90705547     37.252922    0.00000    0.28199    0.00000    0    start
    2      0.000D+00      0.111D-01       -38.91590651     37.726132    0.00000    0.29734    0.00000    1    diag,B
    3      0.226D-01      0.449D-02       -38.91787646     37.832381    0.00000    0.27401    0.00000    2    diag,B
    4      0.124D-01      0.154D-02       -38.91821759     37.841869    0.00000    0.25188    0.00000    3    diag,B
    5      0.498D-02      0.432D-03       -38.91825523     37.839711    0.00000    0.24195    0.00000    4    diag,B
    6      0.105D-02      0.147D-03       -38.91825998     37.839402    0.00000    0.23761    0.00000    5    diag,B
    7      0.583D-03      0.253D-04       -38.91826008     37.839316    0.00000    0.23702    0.00000    6    fixocc
    8      0.960D-04      0.546D-05       -38.91826008     37.839350    0.00000    0.23695    0.00000    7    diag,B
    9      0.203D-04      0.860D-06       -38.91826008     37.839355    0.00000    0.23695    0.00000    8    diag,B
   10      0.301D-05      0.298D-06       -38.91826008     37.839357    0.00000    0.23695    0.00000    9    orth
   11      0.147D-05      0.602D-07       -38.91826008     37.839357    0.00000    0.23695    0.00000    9    diag,B
   12      0.241D-06      0.163D-07       -38.91826008     37.839357    0.00000    0.23695    0.00000    9    diag,B
   13      0.694D-07      0.389D-08       -38.91826008     37.839357    0.00000    0.23695    0.00000    9    diag,B
   14      0.184D-07      0.706D-09       -38.91826008     37.839357    0.00000    0.23695    0.00000    9    diag,B
   15      0.329D-08      0.124D-09       -38.91826008     37.839357    0.00000    0.23695    0.00000    9    diag,B
   16      0.420D-09      0.401D-10       -38.91826008     37.839357    0.00000    0.23695    0.00000    9    diag,B
   17      0.138D-09      0.679D-11       -38.91826008     37.839357    0.00000    0.23695    0.00000    9    diag,B
   18      0.204D-10      0.315D-11       -38.91826008     37.839357    0.00000    0.23695    0.00000    0    orth

 Final alpha occupancy:   3   1   1   0
 Final beta  occupancy:   2   0   1   0

 !RHF STATE 1.2 Energy                -38.918260083506
 Nuclear energy                         6.28889827
 One-electron energy                  -64.12683679
 Two-electron energy                   18.91967845
 Virial quotient                       -0.99894493
 !RHF STATE 1.2 Dipole moment           0.00000000     0.23694511     0.00000000
 Dipole moment /Debye                   0.00000000     0.60221494     0.00000000

 Orbital energies:

         1.1          2.1          3.1          4.1          5.1
    -11.246233    -0.862721    -0.498806     0.204475     0.623656

         1.2          2.2          3.2
     -0.404932     0.654705     1.267030

         1.3          2.3          3.3
     -0.582917     0.262013     0.603816

         1.4          2.4
      1.177095     2.108457

 HOMO      1.2    -0.404932 =     -11.0188eV
 LUMO      4.1     0.204475 =       5.5641eV
 LUMO-HOMO         0.609407 =      16.5828eV


 **********************************************************************************************************************************
 DATASETS  * FILE   NREC   LENGTH (MB)   RECORD NAMES
              1      18       19.10       500      610      700      900      950      970     1000      129      960     1100   
                                          VAR    BASINP    GEOM    SYMINP    ZMAT    AOBASIS   BASIS     P2S    ABASIS      S 
                                         1400     1410     1200     1210     1080     1600     1650     1700   
                                           T        V       H0       H01     AOSYM     SMH    MOLCAS    OPER   

              2       4        0.40       700     1000      520     2100   
                                         GEOM     BASIS   MCVARS     RHF  

 PROGRAMS   *        TOTAL       RHF       INT
 CPU TIMES  *         0.32      0.01      0.19
 REAL TIME  *         0.76 SEC
 DISK USED  *        71.44 MB      
 SF USED    *         0.00 MB      
 GA USED    *         0.00 MB       (max)       0.00 MB       (current)
 **********************************************************************************************************************************


1PROGRAM * CCSD (Unrestricted open-shell coupled cluster)     Authors: C. Hampel, H.-J. Werner, 1991, M. Deegan, P.J. Knowles, 1992


 Convergence thresholds:  THRVAR = 1.00D-14  THRDEN = 1.00D-10

 CCSD(T)     terms to be evaluated (factor= 1.000)


 Number of core orbitals:           1 (   1   0   0   0 )
 Number of closed-shell orbitals:   2 (   1   0   1   0 )
 Number of active  orbitals:        2 (   1   1   0   0 )
 Number of external orbitals:      19 (   8   3   6   2 )

 Memory could be reduced to 0.32 Mwords without degradation in triples

 Number of N-1 electron functions:               6
 Number of N-2 electron functions:              15
 Number of singly external CSFs:                43
 Number of doubly external CSFs:              1462
 Total number of CSFs:                        1505

 Molecular orbitals read from record     2100.2  Type=RHF/CANONICAL (state 1.2)

 Integral transformation finished. Total CPU:   0.00 sec, npass=  1  Memory used:   0.07 MW

 Starting RMP2 calculation

 ITER.      SQ.NORM     CORR.ENERGY   TOTAL ENERGY   ENERGY CHANGE        DEN1      VAR(S)    VAR(P)  DIIS     TIME
   1      1.03271912    -0.09539215   -39.01365223    -0.09539215    -0.00049902  0.17D-04  0.16D-03  1  1     0.00
   2      1.03316390    -0.09594105   -39.01420113    -0.00054890    -0.00000086  0.21D-06  0.22D-06  2  2     0.00
   3      1.03317286    -0.09594668   -39.01420676    -0.00000563    -0.00000001  0.38D-08  0.52D-09  3  3     0.00
   4      1.03317329    -0.09594689   -39.01420697    -0.00000021    -0.00000000  0.35D-10  0.59D-11  4  4     0.00
   5      1.03317331    -0.09594689   -39.01420697    -0.00000001    -0.00000000  0.17D-12  0.69D-13  5  5     0.00
   6      1.03317331    -0.09594689   -39.01420697    -0.00000000    -0.00000000  0.75D-15  0.29D-15  6  6     0.00
   7      1.03317331    -0.09594689   -39.01420697     0.00000000    -0.00000000  0.13D-16  0.22D-17  6  1     0.00

 Norm of t1 vector:      0.03947626      S-energy:    -0.00237370      T1 diagnostic:  0.00096279
 Norm of t2 vector:      0.17780590      P-energy:    -0.09357319
                                         Alpha-Beta:  -0.07279317
                                         Alpha-Alpha: -0.01876952
                                         Beta-Beta:   -0.00201050

 Spin contamination <S**2-Sz**2-Sz>     0.00851128
  Reference energy                    -38.918260083506
  RHF-RMP2 correlation energy          -0.095946891436
 !RHF-RMP2 energy                     -39.014206974942

 Starting UCCSD calculation

 ITER.      SQ.NORM     CORR.ENERGY   TOTAL ENERGY   ENERGY CHANGE        DEN1      VAR(S)    VAR(P)  DIIS     TIME
   1      1.04330218    -0.10879920   -39.02705928    -0.10879920    -0.00509663  0.25D-03  0.16D-02  1  1     0.00
   2      1.04992253    -0.11510458   -39.03336467    -0.00630539    -0.00020146  0.39D-04  0.58D-04  2  2     0.01
   3      1.05143388    -0.11577431   -39.03403439    -0.00066973    -0.00001762  0.38D-05  0.60D-05  3  3     0.01
   4      1.05195562    -0.11594280   -39.03420288    -0.00016849    -0.00000173  0.37D-06  0.62D-06  4  4     0.01
   5      1.05203184    -0.11594152   -39.03420161     0.00000127    -0.00000016  0.43D-07  0.49D-07  5  5     0.02
   6      1.05204924    -0.11595008   -39.03421016    -0.00000855    -0.00000001  0.39D-08  0.43D-08  6  6     0.02
   7      1.05204761    -0.11594876   -39.03420884     0.00000132    -0.00000000  0.39D-09  0.45D-09  6  1     0.02
   8      1.05204713    -0.11594871   -39.03420880     0.00000004    -0.00000000  0.43D-10  0.51D-10  6  3     0.02
   9      1.05204690    -0.11594869   -39.03420877     0.00000002    -0.00000000  0.67D-11  0.66D-11  6  2     0.03
  10      1.05204683    -0.11594866   -39.03420874     0.00000003    -0.00000000  0.60D-12  0.57D-12  6  4     0.03
  11      1.05204683    -0.11594865   -39.03420873     0.00000001    -0.00000000  0.38D-13  0.51D-13  6  5     0.03
  12      1.05204685    -0.11594866   -39.03420874    -0.00000001    -0.00000000  0.36D-14  0.83D-14  6  6     0.04
  13      1.05204686    -0.11594866   -39.03420874    -0.00000000    -0.00000000  0.91D-15  0.17D-14  6  1     0.04
  14      1.05204687    -0.11594866   -39.03420874    -0.00000000    -0.00000000  0.18D-15  0.25D-15  6  3     0.04
  15      1.05204687    -0.11594866   -39.03420875    -0.00000000    -0.00000000  0.12D-16  0.19D-16  6  4     0.04
  16      1.05204687    -0.11594866   -39.03420875    -0.00000000    -0.00000000  0.16D-18  0.68D-18  6  2     0.04
  17      1.05204687    -0.11594866   -39.03420875    -0.00000000    -0.00000000  0.26D-19  0.11D-18  6  5     0.05

 Norm of t1 vector:      0.06080706      S-energy:    -0.00305946      T1 diagnostic:  0.00757861
                                                                       D1 diagnostic:  0.01299173
 Norm of t2 vector:      0.21988491      P-energy:    -0.11288920
                                         Alpha-Beta:  -0.09023071
                                         Alpha-Alpha: -0.02077302
                                         Beta-Beta:   -0.00188547

 Spin contamination <S**2-Sz**2-Sz>     0.00192036

 Memory could be reduced to 0.33 Mwords without degradation in triples
 

 RESULTS
 =======

  Reference energy                    -38.918260083506
  UCCSD singles energy                 -0.003059457216
  UCCSD pair energy                    -0.112889204519
  UCCSD correlation energy             -0.115948661734
  Triples (T) contribution             -0.001716592321
  Total correlation energy             -0.117665254055
 
  RHF-UCCSD energy                    -39.034208745240
  RHF-UCCSD[T] energy                 -39.035936164418
  RHF-UCCSD-T energy                  -39.035910374837
 !RHF-UCCSD(T) energy                 -39.035925337561

 Program statistics:

 Available memory in ccsd:               999999732
 Min. memory needed in ccsd:                  9466
 Max. memory used in ccsd:                   10703
 Max. memory used in cckext:                 42390 (17 integral passes)
 Max. memory used in cckint:                 71885 ( 1 integral passes)



 **********************************************************************************************************************************
 DATASETS  * FILE   NREC   LENGTH (MB)   RECORD NAMES
              1      18       19.10       500      610      700      900      950      970     1000      129      960     1100   
                                          VAR    BASINP    GEOM    SYMINP    ZMAT    AOBASIS   BASIS     P2S    ABASIS      S 
                                         1400     1410     1200     1210     1080     1600     1650     1700   
                                           T        V       H0       H01     AOSYM     SMH    MOLCAS    OPER   

              2       4        0.40       700     1000      520     2100   
                                         GEOM     BASIS   MCVARS     RHF  

 PROGRAMS   *        TOTAL  UCCSD(T)       RHF       INT
 CPU TIMES  *         0.41      0.08      0.01      0.19
 REAL TIME  *         0.88 SEC
 DISK USED  *        71.90 MB      
 SF USED    *         0.51 MB      
 GA USED    *         0.00 MB       (max)       0.00 MB       (current)
 **********************************************************************************************************************************


 PROGRAM * OPT (Geometry optimization)     Authors: F. Eckert and H.-J. Werner


 BFGS update of hessian

 Running default procedure: RHF-SCF000  UCCSD(T)

 Geometry optimization using default procedure for command UCCSD(T)

 Geometry written to block  1 of record 700
 

 Generated   2 symmetrical displacements

 Number of displacements for numerical gradient:      4

 Starting numerical gradient for UCCSD(T)
 Starting task   1   Incrementing displacement  1 by  1.   CPU=    0.00 sec, Elapsed=    0.00 sec


 Recomputing integrals since geometry changed

1PROGRAM * SEWARD (Integral evaluation for generally contracted gaussian basis sets)     Author: Roland Lindh, 1990

 Geometry written to block  1 of record 700


 Point group  C2v 



 ATOMIC COORDINATES

 NR  ATOM    CHARGE       X              Y              Z

   1  C       6.00    0.000000000    0.005785420    0.000000000
   2  H       1.00    0.000000000    1.033565377   -1.716722479
   3  H       1.00    0.000000000    1.033565377    1.716722479

 Bond lengths in Bohr (Angstrom)

 1-2  2.000866739  1-3  2.000866739
     ( 1.058813081)     ( 1.058813081)

 Bond angles

  2-1-3  118.18315656

 NUCLEAR CHARGE:                    8
 NUMBER OF PRIMITIVE AOS:          41
 NUMBER OF SYMMETRY AOS:           40
 NUMBER OF CONTRACTIONS:           24   (  11A1  +   4B1  +   7B2  +   2A2  )
 NUMBER OF CORE ORBITALS:           1   (   1A1  +   0B1  +   0B2  +   0A2  )
 NUMBER OF VALENCE ORBITALS:        6   (   3A1  +   1B1  +   2B2  +   0A2  )


 NUCLEAR REPULSION ENERGY    6.28865358

 Eigenvalues of metric

         1 0.162E-01 0.386E-01 0.116E+00 0.157E+00 0.338E+00 0.963E+00 0.102E+01 0.122E+01
         2 0.176E+00 0.503E+00 0.117E+01 0.217E+01
         3 0.353E-01 0.535E-01 0.132E+00 0.620E+00 0.110E+01 0.136E+01 0.283E+01
         4 0.422E+00 0.156E+01


 Contracted 2-electron integrals neglected if value below      1.0D-14
 AO integral compression algorithm  1   Integral accuracy      1.0D-14

     0.786 MB (compressed) written to integral file (100.0%)

     Node minimum: 0.262 MB, node maximum: 0.262 MB


 NUMBER OF SORTED TWO-ELECTRON INTEGRALS:       4533.     BUFFER LENGTH:  32768
 NUMBER OF SEGMENTS:   1  SEGMENT LENGTH:       4533      RECORD LENGTH: 524288

 Memory used in sort:       0.56 MW

 SORT1 READ       19290. AND WROTE        4192. INTEGRALS IN      1 RECORDS. CPU TIME:     0.00 SEC, REAL TIME:     0.00 SEC
 SORT2 READ       12657. AND WROTE       13826. INTEGRALS IN      3 RECORDS. CPU TIME:     0.00 SEC, REAL TIME:     0.01 SEC

 Node minimum:        4366.  Node maximum:        4927. integrals

 OPERATOR DM      FOR CENTER  0  COORDINATES:    0.000000    0.000000    0.000000
1PROGRAM * RHF-SCF (OPEN SHELL)       Authors: W. Meyer, H.-J. Werner


 NUMBER OF ELECTRONS:       5+    3-
 CONVERGENCE THRESHOLDS:    1.00E-10 (Density)    1.00E-11 (Energy)
 MAX. NUMBER OF ITERATIONS:       60
 INTERPOLATION TYPE:            DIIS
 INTERPOLATION STEPS:              2 (START)      1 (STEP)
 LEVEL SHIFTS:                 -0.60 (CLOSED) -0.30 (OPEN) 

 Number of closed-shell orbitals:    3 (   2   0   1   0 )
 Number of open-shell orbitals:      2 (   1   1   0   0 )


 Molecular orbitals read from record     2100.2  Type=RHF/CANONICAL (state 1.2)

 Molecular orbital dump at record        2100.1

 ITERATION    DDIFF          GRAD             ENERGY        2-EL.EN.            DIPOLE MOMENTS         DIIS   ORB.
    1      0.000D+00      0.000D+00       -38.91852167     37.838639    0.00000    0.23573    0.00000    0    start
    2      0.000D+00      0.175D-03       -38.91852354     37.839369    0.00000    0.23573    0.00000    1    diag,B
    3      0.374D-03      0.728D-04       -38.91852408     37.839632    0.00000    0.23583    0.00000    2    diag,B
    4      0.253D-03      0.198D-04       -38.91852414     37.839671    0.00000    0.23604    0.00000    3    diag,B
    5      0.713D-04      0.604D-05       -38.91852415     37.839693    0.00000    0.23619    0.00000    4    diag,B
    6      0.199D-04      0.163D-05       -38.91852415     37.839692    0.00000    0.23624    0.00000    5    diag,B
    7      0.560D-05      0.281D-06       -38.91852415     37.839692    0.00000    0.23625    0.00000    6    diag,B
    8      0.840D-06      0.786D-07       -38.91852415     37.839693    0.00000    0.23625    0.00000    7    orth
    9      0.350D-06      0.150D-07       -38.91852415     37.839693    0.00000    0.23625    0.00000    8    diag,B
   10      0.749D-07      0.373D-08       -38.91852415     37.839693    0.00000    0.23625    0.00000    9    diag,B
   11      0.182D-07      0.804D-09       -38.91852415     37.839693    0.00000    0.23625    0.00000    9    diag,B
   12      0.303D-08      0.216D-09       -38.91852415     37.839693    0.00000    0.23625    0.00000    9    diag,B
   13      0.815D-09      0.466D-10       -38.91852415     37.839693    0.00000    0.23625    0.00000    9    diag,B
   14      0.175D-09      0.101D-10       -38.91852415     37.839693    0.00000    0.23625    0.00000    9    diag,B
   15      0.365D-10      0.329D-11       -38.91852415     37.839693    0.00000    0.23625    0.00000    0    orth

 Final alpha occupancy:   3   1   1   0
 Final beta  occupancy:   2   0   1   0

 !RHF STATE 1.2 Energy                -38.918524151527
 Nuclear energy                         6.28865358
 One-electron energy                  -64.12702400
 Two-electron energy                   18.91984627
 Virial quotient                       -0.99895148
 !RHF STATE 1.2 Dipole moment           0.00000000     0.23624892     0.00000000
 Dipole moment /Debye                   0.00000000     0.60044552     0.00000000

 Orbital energies:

         1.1          2.1          3.1          4.1          5.1
    -11.246076    -0.862492    -0.497601     0.204476     0.623028

         1.2          2.2          3.2
     -0.404766     0.654813     1.268164

         1.3          2.3          3.3
     -0.583914     0.261925     0.605607

         1.4          2.4
      1.176375     2.111686

 HOMO      1.2    -0.404766 =     -11.0142eV
 LUMO      4.1     0.204476 =       5.5641eV
 LUMO-HOMO         0.609242 =      16.5783eV


 **********************************************************************************************************************************
 DATASETS  * FILE   NREC   LENGTH (MB)   RECORD NAMES
              1      19       19.22       500      610      700      900      950      970     1000      129      960     1100   
                                          VAR    BASINP    GEOM    SYMINP    ZMAT    AOBASIS   BASIS     P2S    ABASIS      S 
                                         1400     1410     1200     1210     1080     1600     1650     1700     2100   
                                           T        V       H0       H01     AOSYM     SMH    MOLCAS    OPER      RHF  

              2       5        0.41       700     1000      520     2100     5600   
                                         GEOM     BASIS   MCVARS     RHF     GINFO   

 PROGRAMS   *        TOTAL       RHF  UCCSD(T)       RHF       INT
 CPU TIMES  *         1.15      0.14      0.08      0.01      0.19
 REAL TIME  *         2.77 SEC
 DISK USED  *        71.90 MB      
 SF USED    *         0.51 MB      
 GA USED    *         0.00 MB       (max)       0.00 MB       (current)
 **********************************************************************************************************************************


1PROGRAM * CCSD (Unrestricted open-shell coupled cluster)     Authors: C. Hampel, H.-J. Werner, 1991, M. Deegan, P.J. Knowles, 1992


 Convergence thresholds:  THRVAR = 1.00D-14  THRDEN = 1.00D-10

 CCSD(T)     terms to be evaluated (factor= 1.000)


 Number of core orbitals:           1 (   1   0   0   0 )
 Number of closed-shell orbitals:   2 (   1   0   1   0 )
 Number of active  orbitals:        2 (   1   1   0   0 )
 Number of external orbitals:      19 (   8   3   6   2 )

 Memory could be reduced to 0.32 Mwords without degradation in triples

 Number of N-1 electron functions:               6
 Number of N-2 electron functions:              15
 Number of singly external CSFs:                43
 Number of doubly external CSFs:              1462
 Total number of CSFs:                        1505

 Molecular orbitals read from record     2100.1  Type=RHF/CANONICAL (state 1.2)

 Integral transformation finished. Total CPU:   0.00 sec, npass=  1  Memory used:   0.07 MW

 Starting RMP2 calculation

 ITER.      SQ.NORM     CORR.ENERGY   TOTAL ENERGY   ENERGY CHANGE        DEN1      VAR(S)    VAR(P)  DIIS     TIME
   1      1.03272579    -0.09541004   -39.01393419    -0.09541004    -0.00049875  0.17D-04  0.16D-03  1  1     0.00
   2      1.03317044    -0.09595862   -39.01448277    -0.00054858    -0.00000086  0.21D-06  0.22D-06  2  2     0.00
   3      1.03317942    -0.09596426   -39.01448841    -0.00000564    -0.00000001  0.38D-08  0.52D-09  3  3     0.00
   4      1.03317986    -0.09596446   -39.01448862    -0.00000021    -0.00000000  0.35D-10  0.59D-11  4  4     0.00
   5      1.03317988    -0.09596447   -39.01448862    -0.00000001    -0.00000000  0.17D-12  0.69D-13  5  5     0.00
   6      1.03317988    -0.09596447   -39.01448862    -0.00000000    -0.00000000  0.78D-15  0.29D-15  6  6     0.00
   7      1.03317988    -0.09596447   -39.01448862     0.00000000    -0.00000000  0.13D-16  0.22D-17  6  1     0.00

 Norm of t1 vector:      0.03958865      S-energy:    -0.00238567      T1 diagnostic:  0.00096743
 Norm of t2 vector:      0.17779938      P-energy:    -0.09357880
                                         Alpha-Beta:  -0.07279715
                                         Alpha-Alpha: -0.01877699
                                         Beta-Beta:   -0.00200466

 Spin contamination <S**2-Sz**2-Sz>     0.00853496
  Reference energy                    -38.918524151527
  RHF-RMP2 correlation energy          -0.095964470309
 !RHF-RMP2 energy                     -39.014488621836

 Starting UCCSD calculation

 ITER.      SQ.NORM     CORR.ENERGY   TOTAL ENERGY   ENERGY CHANGE        DEN1      VAR(S)    VAR(P)  DIIS     TIME
   1      1.04331312    -0.10882290   -39.02734705    -0.10882290    -0.00509689  0.25D-03  0.16D-02  1  1     0.01
   2      1.04993454    -0.11512843   -39.03365258    -0.00630553    -0.00020157  0.39D-04  0.58D-04  2  2     0.01
   3      1.05144716    -0.11579820   -39.03432235    -0.00066977    -0.00001768  0.39D-05  0.60D-05  3  3     0.01
   4      1.05197110    -0.11596709   -39.03449125    -0.00016890    -0.00000174  0.38D-06  0.62D-06  4  4     0.01
   5      1.05204787    -0.11596586   -39.03449001     0.00000124    -0.00000016  0.43D-07  0.49D-07  5  5     0.02
   6      1.05206535    -0.11597440   -39.03449855    -0.00000854    -0.00000001  0.40D-08  0.43D-08  6  6     0.02
   7      1.05206377    -0.11597309   -39.03449724     0.00000131    -0.00000000  0.39D-09  0.44D-09  6  1     0.02
   8      1.05206330    -0.11597305   -39.03449720     0.00000004    -0.00000000  0.43D-10  0.51D-10  6  3     0.02
   9      1.05206308    -0.11597302   -39.03449717     0.00000003    -0.00000000  0.67D-11  0.66D-11  6  2     0.03
  10      1.05206301    -0.11597299   -39.03449714     0.00000003    -0.00000000  0.60D-12  0.57D-12  6  4     0.03
  11      1.05206301    -0.11597298   -39.03449713     0.00000001    -0.00000000  0.38D-13  0.51D-13  6  5     0.03
  12      1.05206303    -0.11597299   -39.03449714    -0.00000001    -0.00000000  0.36D-14  0.86D-14  6  6     0.03
  13      1.05206304    -0.11597299   -39.03449715    -0.00000000    -0.00000000  0.92D-15  0.18D-14  6  1     0.03
  14      1.05206305    -0.11597300   -39.03449715    -0.00000000    -0.00000000  0.18D-15  0.25D-15  6  3     0.04
  15      1.05206305    -0.11597300   -39.03449715    -0.00000000    -0.00000000  0.12D-16  0.19D-16  6  4     0.04
  16      1.05206305    -0.11597300   -39.03449715    -0.00000000    -0.00000000  0.16D-18  0.68D-18  6  2     0.04

 Norm of t1 vector:      0.06097567      S-energy:    -0.00307654      T1 diagnostic:  0.00760274
                                                                       D1 diagnostic:  0.01299892
 Norm of t2 vector:      0.21987500      P-energy:    -0.11289646
                                         Alpha-Beta:  -0.09023608
                                         Alpha-Alpha: -0.02078158
                                         Beta-Beta:   -0.00187880

 Spin contamination <S**2-Sz**2-Sz>     0.00192014

 Memory could be reduced to 0.33 Mwords without degradation in triples
 

 RESULTS
 =======

  Reference energy                    -38.918524151527
  UCCSD singles energy                 -0.003076537367
  UCCSD pair energy                    -0.112896458123
  UCCSD correlation energy             -0.115972995490
  Triples (T) contribution             -0.001715754493
  Total correlation energy             -0.117688749983
 
  RHF-UCCSD energy                    -39.034497147017
  RHF-UCCSD[T] energy                 -39.036223411173
  RHF-UCCSD-T energy                  -39.036198141145
 !RHF-UCCSD(T) energy                 -39.036212901510

 Program statistics:

 Available memory in ccsd:               999998696
 Min. memory needed in ccsd:                  9466
 Max. memory used in ccsd:                   10703
 Max. memory used in cckext:                 42390 (16 integral passes)
 Max. memory used in cckint:                 71885 ( 1 integral passes)



 **********************************************************************************************************************************
 DATASETS  * FILE   NREC   LENGTH (MB)   RECORD NAMES
              1      19       19.22       500      610      700      900      950      970     1000      129      960     1100   
                                          VAR    BASINP    GEOM    SYMINP    ZMAT    AOBASIS   BASIS     P2S    ABASIS      S 
                                         1400     1410     1200     1210     1080     1600     1650     1700     2100   
                                           T        V       H0       H01     AOSYM     SMH    MOLCAS    OPER      RHF  

              2       5        0.41       700     1000      520     2100     5600   
                                         GEOM     BASIS   MCVARS     RHF     GINFO   

 PROGRAMS   *        TOTAL  UCCSD(T)  UCCSD(T)       RHF       INT
 CPU TIMES  *         1.24      0.08      0.08      0.01      0.19
 REAL TIME  *         2.87 SEC
 DISK USED  *        72.28 MB      
 SF USED    *         0.51 MB      
 GA USED    *         0.00 MB       (max)       0.00 MB       (current)
 **********************************************************************************************************************************
 Starting task   2   Incrementing displacement  1 by -1.   CPU=    0.29 sec, Elapsed=    0.28 sec


 Recomputing integrals since geometry changed

1PROGRAM * SEWARD (Integral evaluation for generally contracted gaussian basis sets)     Author: Roland Lindh, 1990

 Geometry written to block  1 of record 700


 Point group  C2v 



 ATOMIC COORDINATES

 NR  ATOM    CHARGE       X              Y              Z

   1  C       6.00    0.000000000   -0.005785420    0.000000000
   2  H       1.00    0.000000000    1.039350798   -1.706743163
   3  H       1.00    0.000000000    1.039350798    1.706743163

 Bond lengths in Bohr (Angstrom)

 1-2  2.001320049  1-3  2.001320049
     ( 1.059052962)     ( 1.059052962)

 Bond angles

  2-1-3  117.03697357

 NUCLEAR CHARGE:                    8
 NUMBER OF PRIMITIVE AOS:          41
 NUMBER OF SYMMETRY AOS:           40
 NUMBER OF CONTRACTIONS:           24   (  11A1  +   4B1  +   7B2  +   2A2  )
 NUMBER OF CORE ORBITALS:           1   (   1A1  +   0B1  +   0B2  +   0A2  )
 NUMBER OF VALENCE ORBITALS:        6   (   3A1  +   1B1  +   2B2  +   0A2  )


 NUCLEAR REPULSION ENERGY    6.28899808

 Eigenvalues of metric

         1 0.161E-01 0.390E-01 0.116E+00 0.156E+00 0.334E+00 0.963E+00 0.102E+01 0.122E+01
         2 0.176E+00 0.499E+00 0.117E+01 0.217E+01
         3 0.351E-01 0.540E-01 0.132E+00 0.627E+00 0.109E+01 0.135E+01 0.282E+01
         4 0.425E+00 0.156E+01


 Contracted 2-electron integrals neglected if value below      1.0D-14
 AO integral compression algorithm  1   Integral accuracy      1.0D-14

     0.786 MB (compressed) written to integral file (100.0%)

     Node minimum: 0.262 MB, node maximum: 0.262 MB


 NUMBER OF SORTED TWO-ELECTRON INTEGRALS:       4533.     BUFFER LENGTH:  32768
 NUMBER OF SEGMENTS:   1  SEGMENT LENGTH:       4533      RECORD LENGTH: 524288

 Memory used in sort:       0.56 MW

 SORT1 READ       19290. AND WROTE        4192. INTEGRALS IN      1 RECORDS. CPU TIME:     0.00 SEC, REAL TIME:     0.00 SEC
 SORT2 READ       12657. AND WROTE       13826. INTEGRALS IN      3 RECORDS. CPU TIME:     0.00 SEC, REAL TIME:     0.01 SEC

 Node minimum:        4366.  Node maximum:        4927. integrals

 OPERATOR DM      FOR CENTER  0  COORDINATES:    0.000000    0.000000    0.000000
1PROGRAM * RHF-SCF (OPEN SHELL)       Authors: W. Meyer, H.-J. Werner


 NUMBER OF ELECTRONS:       5+    3-
 CONVERGENCE THRESHOLDS:    1.00E-10 (Density)    1.00E-11 (Energy)
 MAX. NUMBER OF ITERATIONS:       60
 INTERPOLATION TYPE:            DIIS
 INTERPOLATION STEPS:              2 (START)      1 (STEP)
 LEVEL SHIFTS:                 -0.60 (CLOSED) -0.30 (OPEN) 

 Number of closed-shell orbitals:    3 (   2   0   1   0 )
 Number of open-shell orbitals:      2 (   1   1   0   0 )


 Molecular orbitals read from record     2100.2  Type=RHF/CANONICAL (state 1.2)

 Molecular orbital dump at record        2100.1

 ITERATION    DDIFF          GRAD             ENERGY        2-EL.EN.            DIPOLE MOMENTS         DIIS   ORB.
    1      0.000D+00      0.000D+00       -38.91798103     37.839920    0.00000    0.23817    0.00000    0    start
    2      0.000D+00      0.175D-03       -38.91798290     37.839124    0.00000    0.23816    0.00000    1    diag,B
    3      0.375D-03      0.731D-04       -38.91798344     37.838839    0.00000    0.23805    0.00000    2    diag,B
    4      0.255D-03      0.198D-04       -38.91798350     37.838802    0.00000    0.23784    0.00000    3    diag,B
    5      0.716D-04      0.601D-05       -38.91798351     37.838779    0.00000    0.23769    0.00000    4    diag,B
    6      0.199D-04      0.163D-05       -38.91798351     37.838781    0.00000    0.23764    0.00000    5    diag,B
    7      0.557D-05      0.279D-06       -38.91798351     37.838780    0.00000    0.23763    0.00000    6    diag,B
    8      0.839D-06      0.771D-07       -38.91798351     37.838780    0.00000    0.23763    0.00000    7    orth
    9      0.340D-06      0.149D-07       -38.91798351     37.838780    0.00000    0.23763    0.00000    8    diag,B
   10      0.746D-07      0.369D-08       -38.91798351     37.838780    0.00000    0.23763    0.00000    9    diag,B
   11      0.183D-07      0.773D-09       -38.91798351     37.838780    0.00000    0.23763    0.00000    9    diag,B
   12      0.283D-08      0.215D-09       -38.91798351     37.838780    0.00000    0.23763    0.00000    9    diag,B
   13      0.822D-09      0.450D-10       -38.91798351     37.838780    0.00000    0.23763    0.00000    9    diag,B
   14      0.164D-09      0.101D-10       -38.91798351     37.838780    0.00000    0.23763    0.00000    9    diag,B
   15      0.382D-10      0.236D-11       -38.91798351     37.838780    0.00000    0.23763    0.00000    0    orth

 Final alpha occupancy:   3   1   1   0
 Final beta  occupancy:   2   0   1   0

 !RHF STATE 1.2 Energy                -38.917983511543
 Nuclear energy                         6.28899808
 One-electron energy                  -64.12637146
 Two-electron energy                   18.91938986
 Virial quotient                       -0.99894036
 !RHF STATE 1.2 Dipole moment           0.00000000     0.23763269     0.00000000
 Dipole moment /Debye                   0.00000000     0.60396248     0.00000000

 Orbital energies:

         1.1          2.1          3.1          4.1          5.1
    -11.246395    -0.862944    -0.500009     0.204466     0.624247

         1.2          2.2          3.2
     -0.405099     0.654598     1.265891

         1.3          2.3          3.3
     -0.581902     0.262093     0.602064

         1.4          2.4
      1.177817     2.105230

 HOMO      1.2    -0.405099 =     -11.0233eV
 LUMO      4.1     0.204466 =       5.5638eV
 LUMO-HOMO         0.609565 =      16.5871eV


 **********************************************************************************************************************************
 DATASETS  * FILE   NREC   LENGTH (MB)   RECORD NAMES
              1      19       19.22       500      610      700      900      950      970     1000      129      960     1100   
                                          VAR    BASINP    GEOM    SYMINP    ZMAT    AOBASIS   BASIS     P2S    ABASIS      S 
                                         1400     1410     1200     1210     1080     1600     1650     1700     2100   
                                           T        V       H0       H01     AOSYM     SMH    MOLCAS    OPER      RHF  

              2       5        0.41       700     1000      520     2100     5600   
                                         GEOM     BASIS   MCVARS     RHF     GINFO   

 PROGRAMS   *        TOTAL       RHF  UCCSD(T)       RHF       INT
 CPU TIMES  *         1.39      0.15      0.08      0.01      0.19
 REAL TIME  *         3.07 SEC
 DISK USED  *        72.28 MB      
 SF USED    *         0.51 MB      
 GA USED    *         0.00 MB       (max)       0.00 MB       (current)
 **********************************************************************************************************************************


1PROGRAM * CCSD (Unrestricted open-shell coupled cluster)     Authors: C. Hampel, H.-J. Werner, 1991, M. Deegan, P.J. Knowles, 1992


 Convergence thresholds:  THRVAR = 1.00D-14  THRDEN = 1.00D-10

 CCSD(T)     terms to be evaluated (factor= 1.000)


 Number of core orbitals:           1 (   1   0   0   0 )
 Number of closed-shell orbitals:   2 (   1   0   1   0 )
 Number of active  orbitals:        2 (   1   1   0   0 )
 Number of external orbitals:      19 (   8   3   6   2 )

 Memory could be reduced to 0.32 Mwords without degradation in triples

 Number of N-1 electron functions:               6
 Number of N-2 electron functions:              15
 Number of singly external CSFs:                43
 Number of doubly external CSFs:              1462
 Total number of CSFs:                        1505

 Molecular orbitals read from record     2100.1  Type=RHF/CANONICAL (state 1.2)

 Integral transformation finished. Total CPU:   0.00 sec, npass=  1  Memory used:   0.07 MW

 Starting RMP2 calculation

 ITER.      SQ.NORM     CORR.ENERGY   TOTAL ENERGY   ENERGY CHANGE        DEN1      VAR(S)    VAR(P)  DIIS     TIME
   1      1.03271412    -0.09537634   -39.01335985    -0.09537634    -0.00049932  0.17D-04  0.16D-03  1  1     0.01
   2      1.03315906    -0.09592558   -39.01390909    -0.00054924    -0.00000086  0.21D-06  0.22D-06  2  2     0.01
   3      1.03316801    -0.09593120   -39.01391472    -0.00000563    -0.00000001  0.37D-08  0.52D-09  3  3     0.01
   4      1.03316844    -0.09593141   -39.01391492    -0.00000020    -0.00000000  0.35D-10  0.58D-11  4  4     0.01
   5      1.03316846    -0.09593141   -39.01391493    -0.00000001    -0.00000000  0.17D-12  0.69D-13  5  5     0.01
   6      1.03316846    -0.09593142   -39.01391493    -0.00000000    -0.00000000  0.72D-15  0.29D-15  6  6     0.01
   7      1.03316846    -0.09593142   -39.01391493     0.00000000    -0.00000000  0.13D-16  0.22D-17  6  1     0.01

 Norm of t1 vector:      0.03936721      S-energy:    -0.00236202      T1 diagnostic:  0.00095822
 Norm of t2 vector:      0.17781642      P-energy:    -0.09356940
                                         Alpha-Beta:  -0.07279058
                                         Alpha-Alpha: -0.01876236
                                         Beta-Beta:   -0.00201646

 Spin contamination <S**2-Sz**2-Sz>     0.00848933
  Reference energy                    -38.917983511543
  RHF-RMP2 correlation energy          -0.095931415014
 !RHF-RMP2 energy                     -39.013914926557

 Starting UCCSD calculation

 ITER.      SQ.NORM     CORR.ENERGY   TOTAL ENERGY   ENERGY CHANGE        DEN1      VAR(S)    VAR(P)  DIIS     TIME
   1      1.04329350    -0.10877777   -39.02676128    -0.10877777    -0.00509656  0.25D-03  0.16D-02  1  1     0.02
   2      1.04991345    -0.11508325   -39.03306676    -0.00630548    -0.00020139  0.38D-04  0.58D-04  2  2     0.02
   3      1.05142394    -0.11575306   -39.03373657    -0.00066981    -0.00001755  0.38D-05  0.60D-05  3  3     0.02
   4      1.05194368    -0.11592118   -39.03390469    -0.00016812    -0.00000173  0.36D-06  0.63D-06  4  4     0.03
   5      1.05201938    -0.11591987   -39.03390338     0.00000131    -0.00000016  0.42D-07  0.50D-07  5  5     0.03
   6      1.05203671    -0.11592844   -39.03391195    -0.00000857    -0.00000001  0.39D-08  0.43D-08  6  6     0.03
   7      1.05203504    -0.11592711   -39.03391062     0.00000133    -0.00000000  0.40D-09  0.45D-09  6  1     0.03
   8      1.05203454    -0.11592706   -39.03391057     0.00000005    -0.00000000  0.44D-10  0.51D-10  6  3     0.03
   9      1.05203431    -0.11592704   -39.03391055     0.00000002    -0.00000000  0.68D-11  0.67D-11  6  2     0.03
  10      1.05203424    -0.11592701   -39.03391052     0.00000003    -0.00000000  0.60D-12  0.57D-12  6  4     0.04
  11      1.05203424    -0.11592700   -39.03391051     0.00000001    -0.00000000  0.39D-13  0.51D-13  6  5     0.04
  12      1.05203426    -0.11592701   -39.03391052    -0.00000001    -0.00000000  0.37D-14  0.81D-14  6  6     0.04
  13      1.05203427    -0.11592701   -39.03391052    -0.00000000    -0.00000000  0.90D-15  0.17D-14  6  1     0.04
  14      1.05203428    -0.11592701   -39.03391052    -0.00000000    -0.00000000  0.18D-15  0.25D-15  6  3     0.04
  15      1.05203428    -0.11592701   -39.03391052    -0.00000000    -0.00000000  0.12D-16  0.19D-16  6  4     0.05
  16      1.05203428    -0.11592701   -39.03391052    -0.00000000    -0.00000000  0.16D-18  0.69D-18  6  2     0.05
  17      1.05203428    -0.11592701   -39.03391052    -0.00000000    -0.00000000  0.28D-19  0.11D-18  6  5     0.05

 Norm of t1 vector:      0.06064549      S-energy:    -0.00304283      T1 diagnostic:  0.00755530
                                                                       D1 diagnostic:  0.01298407
 Norm of t2 vector:      0.21990090      P-energy:    -0.11288418
                                         Alpha-Beta:  -0.09022726
                                         Alpha-Alpha: -0.02076471
                                         Beta-Beta:   -0.00189222

 Spin contamination <S**2-Sz**2-Sz>     0.00192102

 Memory could be reduced to 0.33 Mwords without degradation in triples
 

 RESULTS
 =======

  Reference energy                    -38.917983511543
  UCCSD singles energy                 -0.003042826970
  UCCSD pair energy                    -0.112884184736
  UCCSD correlation energy             -0.115927011706
  Triples (T) contribution             -0.001717555800
  Total correlation energy             -0.117644567506
 
  RHF-UCCSD energy                    -39.033910523249
  RHF-UCCSD[T] energy                 -39.035639222515
  RHF-UCCSD-T energy                  -39.035612914818
 !RHF-UCCSD(T) energy                 -39.035628079049

 Program statistics:

 Available memory in ccsd:               999998696
 Min. memory needed in ccsd:                  9466
 Max. memory used in ccsd:                   10703
 Max. memory used in cckext:                 42390 (17 integral passes)
 Max. memory used in cckint:                 71885 ( 1 integral passes)



 **********************************************************************************************************************************
 DATASETS  * FILE   NREC   LENGTH (MB)   RECORD NAMES
              1      19       19.22       500      610      700      900      950      970     1000      129      960     1100   
                                          VAR    BASINP    GEOM    SYMINP    ZMAT    AOBASIS   BASIS     P2S    ABASIS      S 
                                         1400     1410     1200     1210     1080     1600     1650     1700     2100   
                                           T        V       H0       H01     AOSYM     SMH    MOLCAS    OPER      RHF  

              2       5        0.41       700     1000      520     2100     5600   
                                         GEOM     BASIS   MCVARS     RHF     GINFO   

 PROGRAMS   *        TOTAL  UCCSD(T)  UCCSD(T)       RHF       INT
 CPU TIMES  *         1.48      0.09      0.08      0.01      0.19
 REAL TIME  *         3.17 SEC
 DISK USED  *        72.28 MB      
 SF USED    *         0.51 MB      
 GA USED    *         0.00 MB       (max)       0.00 MB       (current)
 **********************************************************************************************************************************
 Starting task   3   Incrementing displacement  2 by  1.   CPU=    0.59 sec, Elapsed=    0.57 sec


 Recomputing integrals since geometry changed

1PROGRAM * SEWARD (Integral evaluation for generally contracted gaussian basis sets)     Author: Roland Lindh, 1990

 Geometry written to block  1 of record 700


 Point group  C2v 



 ATOMIC COORDINATES

 NR  ATOM    CHARGE       X              Y              Z

   1  C       6.00    0.000000000    0.005761560    0.000000000
   2  H       1.00    0.000000000    1.033577307   -1.706722500
   3  H       1.00    0.000000000    1.033577307    1.706722500

 Bond lengths in Bohr (Angstrom)

 1-2  1.992311949  1-3  1.992311949
     ( 1.054286080)     ( 1.054286080)

 Bond angles

  2-1-3  117.88594524

 NUCLEAR CHARGE:                    8
 NUMBER OF PRIMITIVE AOS:          41
 NUMBER OF SYMMETRY AOS:           40
 NUMBER OF CONTRACTIONS:           24   (  11A1  +   4B1  +   7B2  +   2A2  )
 NUMBER OF CORE ORBITALS:           1   (   1A1  +   0B1  +   0B2  +   0A2  )
 NUMBER OF VALENCE ORBITALS:        6   (   3A1  +   1B1  +   2B2  +   0A2  )


 NUCLEAR REPULSION ENERGY    6.31611232

 Eigenvalues of metric

         1 0.161E-01 0.379E-01 0.116E+00 0.156E+00 0.333E+00 0.962E+00 0.102E+01 0.122E+01
         2 0.176E+00 0.499E+00 0.117E+01 0.217E+01
         3 0.347E-01 0.531E-01 0.132E+00 0.619E+00 0.109E+01 0.136E+01 0.283E+01
         4 0.419E+00 0.157E+01


 Contracted 2-electron integrals neglected if value below      1.0D-14
 AO integral compression algorithm  1   Integral accuracy      1.0D-14

     0.786 MB (compressed) written to integral file (100.0%)

     Node minimum: 0.262 MB, node maximum: 0.262 MB


 NUMBER OF SORTED TWO-ELECTRON INTEGRALS:       4533.     BUFFER LENGTH:  32768
 NUMBER OF SEGMENTS:   1  SEGMENT LENGTH:       4533      RECORD LENGTH: 524288

 Memory used in sort:       0.56 MW

 SORT1 READ       19290. AND WROTE        4192. INTEGRALS IN      1 RECORDS. CPU TIME:     0.00 SEC, REAL TIME:     0.00 SEC
 SORT2 READ       12657. AND WROTE       13826. INTEGRALS IN      3 RECORDS. CPU TIME:     0.01 SEC, REAL TIME:     0.00 SEC

 Node minimum:        4366.  Node maximum:        4927. integrals

 OPERATOR DM      FOR CENTER  0  COORDINATES:    0.000000    0.000000    0.000000
1PROGRAM * RHF-SCF (OPEN SHELL)       Authors: W. Meyer, H.-J. Werner


 NUMBER OF ELECTRONS:       5+    3-
 CONVERGENCE THRESHOLDS:    1.00E-10 (Density)    1.00E-11 (Energy)
 MAX. NUMBER OF ITERATIONS:       60
 INTERPOLATION TYPE:            DIIS
 INTERPOLATION STEPS:              2 (START)      1 (STEP)
 LEVEL SHIFTS:                 -0.60 (CLOSED) -0.30 (OPEN) 

 Number of closed-shell orbitals:    3 (   2   0   1   0 )
 Number of open-shell orbitals:      2 (   1   1   0   0 )


 Molecular orbitals read from record     2100.2  Type=RHF/CANONICAL (state 1.2)

 Molecular orbital dump at record        2100.1

 ITERATION    DDIFF          GRAD             ENERGY        2-EL.EN.            DIPOLE MOMENTS         DIIS   ORB.
    1      0.000D+00      0.000D+00       -38.91798456     37.872961    0.00000    0.23575    0.00000    0    start
    2      0.000D+00      0.367D-03       -38.91799117     37.881521    0.00000    0.23536    0.00000    1    diag,B
    3      0.835D-03      0.148D-03       -38.91799272     37.884466    0.00000    0.23561    0.00000    2    diag,B
    4      0.531D-03      0.327D-04       -38.91799285     37.884331    0.00000    0.23600    0.00000    3    diag,B
    5      0.122D-03      0.102D-04       -38.91799286     37.884349    0.00000    0.23620    0.00000    4    diag,B
    6      0.439D-04      0.299D-05       -38.91799286     37.884353    0.00000    0.23627    0.00000    5    diag,B
    7      0.146D-04      0.562D-06       -38.91799286     37.884355    0.00000    0.23628    0.00000    6    diag,B
    8      0.182D-05      0.159D-06       -38.91799286     37.884356    0.00000    0.23628    0.00000    7    orth
    9      0.493D-06      0.348D-07       -38.91799286     37.884355    0.00000    0.23628    0.00000    8    diag,B
   10      0.826D-07      0.921D-08       -38.91799286     37.884355    0.00000    0.23628    0.00000    9    diag,B
   11      0.284D-07      0.165D-08       -38.91799286     37.884355    0.00000    0.23628    0.00000    9    diag,B
   12      0.544D-08      0.521D-09       -38.91799286     37.884355    0.00000    0.23628    0.00000    9    diag,B
   13      0.209D-08      0.108D-09       -38.91799286     37.884355    0.00000    0.23628    0.00000    9    diag,B
   14      0.502D-09      0.177D-10       -38.91799286     37.884355    0.00000    0.23628    0.00000    9    diag,B
   15      0.770D-10      0.562D-11       -38.91799286     37.884355    0.00000    0.23628    0.00000    0    orth

 Final alpha occupancy:   3   1   1   0
 Final beta  occupancy:   2   0   1   0

 !RHF STATE 1.2 Energy                -38.917992863675
 Nuclear energy                         6.31611232
 One-electron energy                  -64.17628288
 Two-electron energy                   18.94217769
 Virial quotient                       -0.99857502
 !RHF STATE 1.2 Dipole moment           0.00000000     0.23628238     0.00000000
 Dipole moment /Debye                   0.00000000     0.60053058     0.00000000

 Orbital energies:

         1.1          2.1          3.1          4.1          5.1
    -11.245204    -0.864312    -0.498230     0.205009     0.623259

         1.2          2.2          3.2
     -0.404799     0.654779     1.268078

         1.3          2.3          3.3
     -0.584934     0.262574     0.604322

         1.4          2.4
      1.177544     2.113375

 HOMO      1.2    -0.404799 =     -11.0151eV
 LUMO      4.1     0.205009 =       5.5786eV
 LUMO-HOMO         0.609808 =      16.5937eV


 **********************************************************************************************************************************
 DATASETS  * FILE   NREC   LENGTH (MB)   RECORD NAMES
              1      19       19.22       500      610      700      900      950      970     1000      129      960     1100   
                                          VAR    BASINP    GEOM    SYMINP    ZMAT    AOBASIS   BASIS     P2S    ABASIS      S 
                                         1400     1410     1200     1210     1080     1600     1650     1700     2100   
                                           T        V       H0       H01     AOSYM     SMH    MOLCAS    OPER      RHF  

              2       5        0.41       700     1000      520     2100     5600   
                                         GEOM     BASIS   MCVARS     RHF     GINFO   

 PROGRAMS   *        TOTAL       RHF  UCCSD(T)       RHF       INT
 CPU TIMES  *         1.64      0.16      0.08      0.01      0.19
 REAL TIME  *         3.36 SEC
 DISK USED  *        72.28 MB      
 SF USED    *         0.51 MB      
 GA USED    *         0.00 MB       (max)       0.00 MB       (current)
 **********************************************************************************************************************************


1PROGRAM * CCSD (Unrestricted open-shell coupled cluster)     Authors: C. Hampel, H.-J. Werner, 1991, M. Deegan, P.J. Knowles, 1992


 Convergence thresholds:  THRVAR = 1.00D-14  THRDEN = 1.00D-10

 CCSD(T)     terms to be evaluated (factor= 1.000)


 Number of core orbitals:           1 (   1   0   0   0 )
 Number of closed-shell orbitals:   2 (   1   0   1   0 )
 Number of active  orbitals:        2 (   1   1   0   0 )
 Number of external orbitals:      19 (   8   3   6   2 )

 Memory could be reduced to 0.32 Mwords without degradation in triples

 Number of N-1 electron functions:               6
 Number of N-2 electron functions:              15
 Number of singly external CSFs:                43
 Number of doubly external CSFs:              1462
 Total number of CSFs:                        1505

 Molecular orbitals read from record     2100.1  Type=RHF/CANONICAL (state 1.2)

 Integral transformation finished. Total CPU:   0.01 sec, npass=  1  Memory used:   0.07 MW

 Starting RMP2 calculation

 ITER.      SQ.NORM     CORR.ENERGY   TOTAL ENERGY   ENERGY CHANGE        DEN1      VAR(S)    VAR(P)  DIIS     TIME
   1      1.03259105    -0.09527463   -39.01326750    -0.09527463    -0.00049526  0.17D-04  0.16D-03  1  1     0.01
   2      1.03303119    -0.09581921   -39.01381207    -0.00054457    -0.00000085  0.21D-06  0.21D-06  2  2     0.01
   3      1.03304004    -0.09582478   -39.01381764    -0.00000557    -0.00000001  0.37D-08  0.51D-09  3  3     0.01
   4      1.03304047    -0.09582498   -39.01381785    -0.00000020    -0.00000000  0.34D-10  0.57D-11  4  4     0.01
   5      1.03304049    -0.09582499   -39.01381785    -0.00000001    -0.00000000  0.16D-12  0.67D-13  5  5     0.01
   6      1.03304049    -0.09582499   -39.01381785    -0.00000000    -0.00000000  0.73D-15  0.28D-15  6  6     0.01
   7      1.03304049    -0.09582499   -39.01381785     0.00000000    -0.00000000  0.12D-16  0.21D-17  6  1     0.01

 Norm of t1 vector:      0.03949545      S-energy:    -0.00238036      T1 diagnostic:  0.00096007
 Norm of t2 vector:      0.17742773      P-energy:    -0.09344463
                                         Alpha-Beta:  -0.07266993
                                         Alpha-Alpha: -0.01877086
                                         Beta-Beta:   -0.00200383

 Spin contamination <S**2-Sz**2-Sz>     0.00850478
  Reference energy                    -38.917992863675
  RHF-RMP2 correlation energy          -0.095824988491
 !RHF-RMP2 energy                     -39.013817852166

 Starting UCCSD calculation

 ITER.      SQ.NORM     CORR.ENERGY   TOTAL ENERGY   ENERGY CHANGE        DEN1      VAR(S)    VAR(P)  DIIS     TIME
   1      1.04312765    -0.10866594   -39.02665880    -0.10866594    -0.00507421  0.25D-03  0.16D-02  1  1     0.01
   2      1.04968882    -0.11493998   -39.03293284    -0.00627404    -0.00019892  0.38D-04  0.57D-04  2  2     0.02
   3      1.05117657    -0.11560090   -39.03359377    -0.00066092    -0.00001741  0.38D-05  0.59D-05  3  3     0.02
   4      1.05169131    -0.11576759   -39.03376046    -0.00016669    -0.00000169  0.36D-06  0.61D-06  4  4     0.02
   5      1.05176589    -0.11576623   -39.03375909     0.00000136    -0.00000015  0.42D-07  0.48D-07  5  5     0.02
   6      1.05178277    -0.11577463   -39.03376749    -0.00000840    -0.00000001  0.38D-08  0.41D-08  6  6     0.03
   7      1.05178116    -0.11577332   -39.03376618     0.00000131    -0.00000000  0.37D-09  0.42D-09  6  1     0.03
   8      1.05178070    -0.11577328   -39.03376614     0.00000004    -0.00000000  0.41D-10  0.48D-10  6  3     0.03
   9      1.05178049    -0.11577325   -39.03376612     0.00000002    -0.00000000  0.64D-11  0.62D-11  6  2     0.04
  10      1.05178042    -0.11577323   -39.03376609     0.00000003    -0.00000000  0.56D-12  0.54D-12  6  4     0.04
  11      1.05178042    -0.11577322   -39.03376608     0.00000001    -0.00000000  0.35D-13  0.48D-13  6  5     0.04
  12      1.05178044    -0.11577322   -39.03376609    -0.00000001    -0.00000000  0.32D-14  0.78D-14  6  6     0.04
  13      1.05178045    -0.11577323   -39.03376609    -0.00000000    -0.00000000  0.83D-15  0.16D-14  6  1     0.05
  14      1.05178046    -0.11577323   -39.03376609    -0.00000000    -0.00000000  0.17D-15  0.23D-15  6  3     0.05
  15      1.05178046    -0.11577323   -39.03376609    -0.00000000    -0.00000000  0.11D-16  0.17D-16  6  4     0.05
  16      1.05178046    -0.11577323   -39.03376609    -0.00000000    -0.00000000  0.14D-18  0.63D-18  6  2     0.05

 Norm of t1 vector:      0.06071548      S-energy:    -0.00306749      T1 diagnostic:  0.00755468
                                                                       D1 diagnostic:  0.01295977
 Norm of t2 vector:      0.21930364      P-energy:    -0.11270574
                                         Alpha-Beta:  -0.09004472
                                         Alpha-Alpha: -0.02078024
                                         Beta-Beta:   -0.00188077

 Spin contamination <S**2-Sz**2-Sz>     0.00190489

 Memory could be reduced to 0.33 Mwords without degradation in triples
 

 RESULTS
 =======

  Reference energy                    -38.917992863675
  UCCSD singles energy                 -0.003067490467
  UCCSD pair energy                    -0.112705738088
  UCCSD correlation energy             -0.115773228555
  Triples (T) contribution             -0.001705407531
  Total correlation energy             -0.117478636086
 
  RHF-UCCSD energy                    -39.033766092229
  RHF-UCCSD[T] energy                 -39.035481953350
  RHF-UCCSD-T energy                  -39.035456762918
 !RHF-UCCSD(T) energy                 -39.035471499760

 Program statistics:

 Available memory in ccsd:               999998696
 Min. memory needed in ccsd:                  9466
 Max. memory used in ccsd:                   10703
 Max. memory used in cckext:                 42390 (16 integral passes)
 Max. memory used in cckint:                 71885 ( 1 integral passes)



 **********************************************************************************************************************************
 DATASETS  * FILE   NREC   LENGTH (MB)   RECORD NAMES
              1      19       19.22       500      610      700      900      950      970     1000      129      960     1100   
                                          VAR    BASINP    GEOM    SYMINP    ZMAT    AOBASIS   BASIS     P2S    ABASIS      S 
                                         1400     1410     1200     1210     1080     1600     1650     1700     2100   
                                           T        V       H0       H01     AOSYM     SMH    MOLCAS    OPER      RHF  

              2       5        0.41       700     1000      520     2100     5600   
                                         GEOM     BASIS   MCVARS     RHF     GINFO   

 PROGRAMS   *        TOTAL  UCCSD(T)  UCCSD(T)       RHF       INT
 CPU TIMES  *         1.72      0.08      0.08      0.01      0.19
 REAL TIME  *         3.46 SEC
 DISK USED  *        72.28 MB      
 SF USED    *         0.51 MB      
 GA USED    *         0.00 MB       (max)       0.00 MB       (current)
 **********************************************************************************************************************************
 Starting task   4   Incrementing displacement  2 by -1.   CPU=    0.89 sec, Elapsed=    0.86 sec


 Recomputing integrals since geometry changed

1PROGRAM * SEWARD (Integral evaluation for generally contracted gaussian basis sets)     Author: Roland Lindh, 1990

 Geometry written to block  1 of record 700


 Point group  C2v 



 ATOMIC COORDINATES

 NR  ATOM    CHARGE       X              Y              Z

   1  C       6.00    0.000000000   -0.005761560    0.000000000
   2  H       1.00    0.000000000    1.039338868   -1.716743142
   3  H       1.00    0.000000000    1.039338868    1.716743142

 Bond lengths in Bohr (Angstrom)

 1-2  2.009836292  1-3  2.009836292
     ( 1.063559563)     ( 1.063559563)

 Bond angles

  2-1-3  117.33646111

 NUCLEAR CHARGE:                    8
 NUMBER OF PRIMITIVE AOS:          41
 NUMBER OF SYMMETRY AOS:           40
 NUMBER OF CONTRACTIONS:           24   (  11A1  +   4B1  +   7B2  +   2A2  )
 NUMBER OF CORE ORBITALS:           1   (   1A1  +   0B1  +   0B2  +   0A2  )
 NUMBER OF VALENCE ORBITALS:        6   (   3A1  +   1B1  +   2B2  +   0A2  )


 NUCLEAR REPULSION ENERGY    6.26188470

 Eigenvalues of metric

         1 0.163E-01 0.397E-01 0.117E+00 0.156E+00 0.339E+00 0.964E+00 0.102E+01 0.122E+01
         2 0.176E+00 0.504E+00 0.117E+01 0.217E+01
         3 0.357E-01 0.543E-01 0.132E+00 0.628E+00 0.110E+01 0.135E+01 0.283E+01
         4 0.428E+00 0.156E+01


 Contracted 2-electron integrals neglected if value below      1.0D-14
 AO integral compression algorithm  1   Integral accuracy      1.0D-14

     0.786 MB (compressed) written to integral file (100.0%)

     Node minimum: 0.262 MB, node maximum: 0.262 MB


 NUMBER OF SORTED TWO-ELECTRON INTEGRALS:       4533.     BUFFER LENGTH:  32768
 NUMBER OF SEGMENTS:   1  SEGMENT LENGTH:       4533      RECORD LENGTH: 524288

 Memory used in sort:       0.56 MW

 SORT1 READ       19290. AND WROTE        4192. INTEGRALS IN      1 RECORDS. CPU TIME:     0.00 SEC, REAL TIME:     0.01 SEC
 SORT2 READ       12657. AND WROTE       13826. INTEGRALS IN      3 RECORDS. CPU TIME:     0.00 SEC, REAL TIME:     0.00 SEC

 Node minimum:        4366.  Node maximum:        4927. integrals

 OPERATOR DM      FOR CENTER  0  COORDINATES:    0.000000    0.000000    0.000000
1PROGRAM * RHF-SCF (OPEN SHELL)       Authors: W. Meyer, H.-J. Werner


 NUMBER OF ELECTRONS:       5+    3-
 CONVERGENCE THRESHOLDS:    1.00E-10 (Density)    1.00E-11 (Energy)
 MAX. NUMBER OF ITERATIONS:       60
 INTERPOLATION TYPE:            DIIS
 INTERPOLATION STEPS:              2 (START)      1 (STEP)
 LEVEL SHIFTS:                 -0.60 (CLOSED) -0.30 (OPEN) 

 Number of closed-shell orbitals:    3 (   2   0   1   0 )
 Number of open-shell orbitals:      2 (   1   1   0   0 )


 Molecular orbitals read from record     2100.2  Type=RHF/CANONICAL (state 1.2)

 Molecular orbital dump at record        2100.1

 ITERATION    DDIFF          GRAD             ENERGY        2-EL.EN.            DIPOLE MOMENTS         DIIS   ORB.
    1      0.000D+00      0.000D+00       -38.91845023     37.805823    0.00000    0.23814    0.00000    0    start
    2      0.000D+00      0.365D-03       -38.91845678     37.797379    0.00000    0.23852    0.00000    1    diag,B
    3      0.834D-03      0.148D-03       -38.91845834     37.794449    0.00000    0.23827    0.00000    2    diag,B
    4      0.531D-03      0.325D-04       -38.91845846     37.794581    0.00000    0.23788    0.00000    3    diag,B
    5      0.122D-03      0.102D-04       -38.91845848     37.794558    0.00000    0.23768    0.00000    4    diag,B
    6      0.437D-04      0.297D-05       -38.91845848     37.794554    0.00000    0.23761    0.00000    5    diag,B
    7      0.145D-04      0.562D-06       -38.91845848     37.794551    0.00000    0.23760    0.00000    6    diag,B
    8      0.183D-05      0.157D-06       -38.91845848     37.794551    0.00000    0.23759    0.00000    7    orth
    9      0.490D-06      0.346D-07       -38.91845848     37.794551    0.00000    0.23759    0.00000    8    diag,B
   10      0.809D-07      0.915D-08       -38.91845848     37.794551    0.00000    0.23759    0.00000    9    diag,B
   11      0.279D-07      0.161D-08       -38.91845848     37.794551    0.00000    0.23759    0.00000    9    diag,B
   12      0.510D-08      0.534D-09       -38.91845848     37.794551    0.00000    0.23759    0.00000    9    diag,B
   13      0.212D-08      0.113D-09       -38.91845848     37.794551    0.00000    0.23759    0.00000    9    diag,B
   14      0.540D-09      0.173D-10       -38.91845848     37.794551    0.00000    0.23759    0.00000    9    diag,B
   15      0.751D-10      0.557D-11       -38.91845848     37.794551    0.00000    0.23759    0.00000    0    orth

 Final alpha occupancy:   3   1   1   0
 Final beta  occupancy:   2   0   1   0

 !RHF STATE 1.2 Energy                -38.918458478606
 Nuclear energy                         6.26188470
 One-electron energy                  -64.07761852
 Two-electron energy                   18.89727534
 Virial quotient                       -0.99930898
 !RHF STATE 1.2 Dipole moment           0.00000000     0.23759339     0.00000000
 Dipole moment /Debye                   0.00000000     0.60386261     0.00000000

 Orbital energies:

         1.1          2.1          3.1          4.1          5.1
    -11.247263    -0.861135    -0.499377     0.203935     0.624053

         1.2          2.2          3.2
     -0.405069     0.654626     1.265989

         1.3          2.3          3.3
     -0.580913     0.261434     0.603328

         1.4          2.4
      1.176656     2.103565

 HOMO      1.2    -0.405069 =     -11.0225eV
 LUMO      4.1     0.203935 =       5.5494eV
 LUMO-HOMO         0.609005 =      16.5719eV


 **********************************************************************************************************************************
 DATASETS  * FILE   NREC   LENGTH (MB)   RECORD NAMES
              1      19       19.22       500      610      700      900      950      970     1000      129      960     1100   
                                          VAR    BASINP    GEOM    SYMINP    ZMAT    AOBASIS   BASIS     P2S    ABASIS      S 
                                         1400     1410     1200     1210     1080     1600     1650     1700     2100   
                                           T        V       H0       H01     AOSYM     SMH    MOLCAS    OPER      RHF  

              2       5        0.41       700     1000      520     2100     5600   
                                         GEOM     BASIS   MCVARS     RHF     GINFO   

 PROGRAMS   *        TOTAL       RHF  UCCSD(T)       RHF       INT
 CPU TIMES  *         1.88      0.16      0.08      0.01      0.19
 REAL TIME  *         3.66 SEC
 DISK USED  *        72.28 MB      
 SF USED    *         0.51 MB      
 GA USED    *         0.00 MB       (max)       0.00 MB       (current)
 **********************************************************************************************************************************


1PROGRAM * CCSD (Unrestricted open-shell coupled cluster)     Authors: C. Hampel, H.-J. Werner, 1991, M. Deegan, P.J. Knowles, 1992


 Convergence thresholds:  THRVAR = 1.00D-14  THRDEN = 1.00D-10

 CCSD(T)     terms to be evaluated (factor= 1.000)


 Number of core orbitals:           1 (   1   0   0   0 )
 Number of closed-shell orbitals:   2 (   1   0   1   0 )
 Number of active  orbitals:        2 (   1   1   0   0 )
 Number of external orbitals:      19 (   8   3   6   2 )

 Memory could be reduced to 0.32 Mwords without degradation in triples

 Number of N-1 electron functions:               6
 Number of N-2 electron functions:              15
 Number of singly external CSFs:                43
 Number of doubly external CSFs:              1462
 Total number of CSFs:                        1505

 Molecular orbitals read from record     2100.1  Type=RHF/CANONICAL (state 1.2)

 Integral transformation finished. Total CPU:   0.00 sec, npass=  1  Memory used:   0.07 MW

 Starting RMP2 calculation

 ITER.      SQ.NORM     CORR.ENERGY   TOTAL ENERGY   ENERGY CHANGE        DEN1      VAR(S)    VAR(P)  DIIS     TIME
   1      1.03284816    -0.09550982   -39.01396830    -0.09550982    -0.00050284  0.17D-04  0.16D-03  1  1     0.01
   2      1.03329766    -0.09606309   -39.01452157    -0.00055327    -0.00000087  0.21D-06  0.22D-06  2  2     0.01
   3      1.03330674    -0.09606879   -39.01452726    -0.00000569    -0.00000001  0.38D-08  0.54D-09  3  3     0.01
   4      1.03330718    -0.09606899   -39.01452747    -0.00000021    -0.00000000  0.36D-10  0.60D-11  4  4     0.01
   5      1.03330720    -0.09606900   -39.01452748    -0.00000001    -0.00000000  0.18D-12  0.71D-13  5  5     0.01
   6      1.03330720    -0.09606900   -39.01452748    -0.00000000    -0.00000000  0.78D-15  0.31D-15  6  6     0.01
   7      1.03330720    -0.09606900   -39.01452748     0.00000000    -0.00000000  0.14D-16  0.23D-17  6  1     0.01

 Norm of t1 vector:      0.03945701      S-energy:    -0.00236713      T1 diagnostic:  0.00096551
 Norm of t2 vector:      0.17818626      P-energy:    -0.09370187
                                         Alpha-Beta:  -0.07291659
                                         Alpha-Alpha: -0.01876808
                                         Beta-Beta:   -0.00201720

 Spin contamination <S**2-Sz**2-Sz>     0.00851749
  Reference energy                    -38.918458478606
  RHF-RMP2 correlation energy          -0.096069000156
 !RHF-RMP2 energy                     -39.014527478762

 Starting UCCSD calculation

 ITER.      SQ.NORM     CORR.ENERGY   TOTAL ENERGY   ENERGY CHANGE        DEN1      VAR(S)    VAR(P)  DIIS     TIME
   1      1.04347807    -0.10893250   -39.02739098    -0.10893250    -0.00511925  0.25D-03  0.16D-02  1  1     0.01
   2      1.05015859    -0.11526953   -39.03372801    -0.00633703    -0.00020406  0.39D-04  0.59D-04  2  2     0.01
   3      1.05169417    -0.11594827   -39.03440675    -0.00067874    -0.00001783  0.38D-05  0.61D-05  3  3     0.02
   4      1.05222309    -0.11611860   -39.03457708    -0.00017032    -0.00000177  0.37D-06  0.64D-06  4  4     0.02
   5      1.05230097    -0.11611741   -39.03457589     0.00000118    -0.00000016  0.44D-07  0.51D-07  5  5     0.02
   6      1.05231892    -0.11612613   -39.03458461    -0.00000871    -0.00000002  0.41D-08  0.45D-08  6  6     0.02
   7      1.05231728    -0.11612479   -39.03458327     0.00000133    -0.00000000  0.42D-09  0.47D-09  6  1     0.03
   8      1.05231676    -0.11612475   -39.03458323     0.00000005    -0.00000000  0.46D-10  0.54D-10  6  3     0.03
   9      1.05231653    -0.11612472   -39.03458320     0.00000003    -0.00000000  0.70D-11  0.71D-11  6  2     0.03
  10      1.05231645    -0.11612469   -39.03458317     0.00000003    -0.00000000  0.64D-12  0.61D-12  6  4     0.03
  11      1.05231645    -0.11612468   -39.03458316     0.00000001    -0.00000000  0.43D-13  0.54D-13  6  5     0.03
  12      1.05231647    -0.11612469   -39.03458317    -0.00000001    -0.00000000  0.41D-14  0.89D-14  6  6     0.04
  13      1.05231649    -0.11612469   -39.03458317    -0.00000000    -0.00000000  0.99D-15  0.19D-14  6  1     0.04
  14      1.05231649    -0.11612470   -39.03458317    -0.00000000    -0.00000000  0.20D-15  0.28D-15  6  3     0.04
  15      1.05231649    -0.11612470   -39.03458317    -0.00000000    -0.00000000  0.14D-16  0.21D-16  6  4     0.04
  16      1.05231650    -0.11612470   -39.03458317    -0.00000000    -0.00000000  0.18D-18  0.74D-18  6  2     0.05
  17      1.05231650    -0.11612470   -39.03458317    -0.00000000    -0.00000000  0.29D-19  0.12D-18  6  5     0.05

 Norm of t1 vector:      0.06090020      S-energy:    -0.00305146      T1 diagnostic:  0.00760356
                                                                       D1 diagnostic:  0.01302441
 Norm of t2 vector:      0.22047145      P-energy:    -0.11307323
                                         Alpha-Beta:  -0.09041745
                                         Alpha-Alpha: -0.02076562
                                         Beta-Beta:   -0.00189016

 Spin contamination <S**2-Sz**2-Sz>     0.00193608

 Memory could be reduced to 0.33 Mwords without degradation in triples
 

 RESULTS
 =======

  Reference energy                    -38.918458478606
  UCCSD singles energy                 -0.003051462472
  UCCSD pair energy                    -0.113073233150
  UCCSD correlation energy             -0.116124695622
  Triples (T) contribution             -0.001727922592
  Total correlation energy             -0.117852618214
 
  RHF-UCCSD energy                    -39.034583174227
  RHF-UCCSD[T] energy                 -39.036322311771
  RHF-UCCSD-T energy                  -39.036295897806
 !RHF-UCCSD(T) energy                 -39.036311096820

 Program statistics:

 Available memory in ccsd:               999998696
 Min. memory needed in ccsd:                  9466
 Max. memory used in ccsd:                   10703
 Max. memory used in cckext:                 42390 (17 integral passes)
 Max. memory used in cckint:                 71885 ( 1 integral passes)



 **********************************************************************************************************************************
 DATASETS  * FILE   NREC   LENGTH (MB)   RECORD NAMES
              1      19       19.22       500      610      700      900      950      970     1000      129      960     1100   
                                          VAR    BASINP    GEOM    SYMINP    ZMAT    AOBASIS   BASIS     P2S    ABASIS      S 
                                         1400     1410     1200     1210     1080     1600     1650     1700     2100   
                                           T        V       H0       H01     AOSYM     SMH    MOLCAS    OPER      RHF  

              2       5        0.41       700     1000      520     2100     5600   
                                         GEOM     BASIS   MCVARS     RHF     GINFO   

 PROGRAMS   *        TOTAL  UCCSD(T)  UCCSD(T)       RHF       INT
 CPU TIMES  *         1.96      0.08      0.08      0.01      0.19
 REAL TIME  *         3.76 SEC
 DISK USED  *        72.28 MB      
 SF USED    *         0.51 MB      
 GA USED    *         0.00 MB       (max)       0.00 MB       (current)
 **********************************************************************************************************************************
 Numerical gradient completed. CPU-time:     1.20 sec, Elapsed:     1.16 sec

 Numerical gradient for UCCSD(T)

 Total Energy           -39.03592534  Dipole moments:    0.000000    0.000000    0.000000

 Atom          dE/dx               dE/dy               dE/dz                  d2E/dx2             d2E/dy2             d2E/dz2
   1         0.000000000         0.007269727         0.000000000            0.000000000         0.000000000         0.000000000
   2         0.000000000        -0.003634863         0.035623573            0.000000000         0.000000000         0.000000000
   3        -0.000000000        -0.003634863        -0.035623573            0.000000000         0.000000000         0.000000000
 Reading points  1 to  1 from record 700.2,  wavefunction type=UCCSD(T)        

 Making model hessian for cartesian coordinates
 No hessian update for point  1

 Entering Rational Function Geometry Optimization

 Optimization point  1

 Variable                      Last           Current        Next           Gradient       Hessian
 E(UCCSD(T)) / Hartree       0.00000000   -39.03592534   -39.04129651
 GX1 / ANGSTROM              0.00000000     0.00000000     0.00000000     0.00000000    -0.00000000
 GY1 / ANGSTROM              0.00000000     0.00000000     0.05096480     0.01373779    -0.00000000
 GZ1 / ANGSTROM              0.00000000     0.00000000     0.00000000     0.00000000     0.00000000
 GX2 / ANGSTROM              0.00000000     0.00000000     0.00000000     0.00000000     0.00000000
 GY2 / ANGSTROM              0.00000000     0.54847000     0.52298760    -0.00686890     0.00000000
 GZ2 / ANGSTROM              0.00000000    -0.90581000    -0.98867209     0.06731880     0.00000000
 GX3 / ANGSTROM              0.00000000     0.00000000     0.00000000     0.00000000     0.45691433
 GY3 / ANGSTROM              0.00000000     0.54847000     0.52298760    -0.00686890     3.04765637
 GZ3 / ANGSTROM              0.00000000     0.90581000     0.98867209    -0.06731880     4.64670100
[...]

              2       8        0.64       700     1000      520     2100     5600     5500      701     1001   
                                         GEOM     BASIS   MCVARS     RHF     GINFO    HINFO    GEOM     BASIS   

 PROGRAMS   *        TOTAL  UCCSD(T)      OPTG  UCCSD(T)       RHF       INT
 CPU TIMES  *        16.11      0.10      8.50      0.08      0.01      0.19
 REAL TIME  *        20.51 SEC
 DISK USED  *        75.41 MB      
 SF USED    *         1.79 MB      
 GA USED    *         0.00 MB       (max)       0.00 MB       (current)
 **********************************************************************************************************************************

 Numerical UCCSD(T) hessian completed. CPU-time:     8.95 sec, Elapsed:     8.73 sec

 UCCSD(T) hessian saved to record  5300.2

 FREQUENCIES * CALCULATION OF HARMONIC VIBRATIONAL SPECTRA FOR UCCSD(T)


 Permanent Dipole Moment [debye]
   1-  3    0.000000    0.000000    0.000000

 Dipole Moment Norm    0.0000000 [debye]

 Dipole Moment Derivatives [debye/ang]
                   1             2             3             4             5             6             7             8
         1     0.0000000     0.0000000     0.0000000     0.0000000     0.0000000     0.0000000     0.0000000     0.0000000
         2     0.0000000     0.0000000     0.0000000     0.0000000     0.0000000     0.0000000     0.0000000     0.0000000
         3     0.0000000     0.0000000     0.0000000     0.0000000     0.0000000     0.0000000     0.0000000     0.0000000
                   9
         1     0.0000000
         2     0.0000000
         3     0.0000000

 Projecting out rotations and translations

   Low Vibration      Wavenumber
        Nr             [1/cm] 
        1                0.00
        2                0.00
        3                0.00
        4                0.00
        5                0.00
        6                0.00

     Vibration        Wavenumber
        Nr             [1/cm] 
        1             1126.85
        2             3138.76
        3             3364.44

 FREQUENCIES * CALCULATION OF NORMAL MODES FOR UCCSD(T)


 Atomic Coordinates

  Nr  Atom  Charge       X              Y              Z

   1   C     6.00    0.000000000    0.131646629    0.000000000
   2   H     1.00    0.000000000    0.970634773   -1.892926267
   3   H     1.00    0.000000000    0.970634773    1.892926267

 Frequencies dumped to record   5400.2

 Gradient norm at reference geometry: 0.13026D-04

 Normal Modes

                              1 A1        2 A1        3 B2 
 Wavenumbers [cm-1]         1126.85     3138.76     3364.44
 Intensities [km/mol]          0.00        0.00        0.00
 Intensities [relative]        0.00        0.00        0.00
           GX1              0.00000     0.00000     0.00000
           GY1             -0.10023     0.04381    -0.00000
           GZ1              0.00000    -0.00000    -0.10120
           GX2             -0.00000    -0.00000    -0.00000
           GY2              0.59718    -0.26104    -0.26726
           GZ2              0.28210     0.64535     0.60300
           GX3              0.00000     0.00000     0.00000
           GY3              0.59718    -0.26104     0.26726
           GZ3             -0.28210    -0.64535     0.60300


 Normal Modes of low/zero frequencies

                                  1           2           3           4           5
 Wavenumbers [cm-1]            0.00        0.00        0.00        0.00        0.00
 Intensities [km/mol]          0.00        0.00        0.00        0.00        0.00
 Intensities [relative]        0.00        0.00        0.00        0.00        0.00
           GX1              0.00000     0.00000     0.00000     0.13690     0.25400
           GY1              0.03565     0.05204     0.21128     0.00000     0.00000
           GZ1              0.09673     0.22968     0.00154     0.00000     0.00000
           GX2             -0.13825     0.28359    -0.39566     0.62000    -0.33416
           GY2              0.58129    -0.21220     0.05531     0.00000     0.00000
           GZ2              0.33857     0.11256    -0.06759     0.00000     0.00000
           GX3              0.13825    -0.28359     0.39566     0.62000    -0.33416
           GY3             -0.51000     0.31627     0.36725     0.00000     0.00000
           GZ3              0.33857     0.11256    -0.06759     0.00000     0.00000

                                  6
 Wavenumbers [cm-1]            0.00
 Intensities [km/mol]          0.00
 Intensities [relative]        0.00
           GX1              0.00000
           GY1              0.15058
           GZ1             -0.10442
           GX2              0.48987
           GY2              0.33157
           GZ2             -0.02420
           GX3             -0.48987
           GY3             -0.03041
           GZ3             -0.02420


 Zero point energy:  0.01738254 [H]     3815.03 [1/CM]       45.64 [KJ/MOL]

 Recomputing wavefunction at initial geometry


 Recomputing integrals since geometry and symmetry changed


 Using spherical harmonics

 Library entry C      S cc-pVDZ              selected for orbital group  1
 Library entry C      P cc-pVDZ              selected for orbital group  1
 Library entry C      D cc-pVDZ              selected for orbital group  1
 Library entry H      S cc-pVDZ              selected for orbital group  2
 Library entry H      P cc-pVDZ              selected for orbital group  2

1PROGRAM * SEWARD (Integral evaluation for generally contracted gaussian basis sets)     Author: Roland Lindh, 1990

 Geometry written to block  1 of record 700


 Point group  C2v 



 ATOMIC COORDINATES

 NR  ATOM    CHARGE       X              Y              Z

   1  C       6.00    0.000000000    0.131646629    0.000000000
   2  H       1.00    0.000000000    0.970634773   -1.892926267
   3  H       1.00    0.000000000    0.970634773    1.892926267

 Bond lengths in Bohr (Angstrom)

 1-2  2.070524320  1-3  2.070524320
     ( 1.095674285)     ( 1.095674285)

 Bond angles

  2-1-3  132.19197083

 NUCLEAR CHARGE:                    8
 NUMBER OF PRIMITIVE AOS:          41
 NUMBER OF SYMMETRY AOS:           40
 NUMBER OF CONTRACTIONS:           24   (  11A1  +   4B1  +   7B2  +   2A2  )
 NUMBER OF CORE ORBITALS:           1   (   1A1  +   0B1  +   0B2  +   0A2  )
 NUMBER OF VALENCE ORBITALS:        6   (   3A1  +   1B1  +   2B2  +   0A2  )

 SYMMETRY CHANGED: INITIALIZING OCCUPATION


 NUCLEAR REPULSION ENERGY    6.05977474

 Eigenvalues of metric

         1 0.183E-01 0.385E-01 0.120E+00 0.164E+00 0.436E+00 0.966E+00 0.102E+01 0.119E+01
         2 0.176E+00 0.584E+00 0.111E+01 0.213E+01
         3 0.416E-01 0.520E-01 0.133E+00 0.552E+00 0.113E+01 0.146E+01 0.294E+01
         4 0.421E+00 0.157E+01


 Contracted 2-electron integrals neglected if value below      1.0D-14
 AO integral compression algorithm  1   Integral accuracy      1.0D-14

     0.786 MB (compressed) written to integral file (100.0%)

     Node minimum: 0.262 MB, node maximum: 0.262 MB


 NUMBER OF SORTED TWO-ELECTRON INTEGRALS:       4533.     BUFFER LENGTH:  32768
 NUMBER OF SEGMENTS:   1  SEGMENT LENGTH:       4533      RECORD LENGTH: 524288

 Memory used in sort:       0.56 MW

 SORT1 READ       19290. AND WROTE        4192. INTEGRALS IN      1 RECORDS. CPU TIME:     0.00 SEC, REAL TIME:     0.00 SEC
 SORT2 READ       12657. AND WROTE       13826. INTEGRALS IN      3 RECORDS. CPU TIME:     0.00 SEC, REAL TIME:     0.00 SEC

 Node minimum:        4366.  Node maximum:        4927. integrals

 OPERATOR DM      FOR CENTER  0  COORDINATES:    0.000000    0.000000    0.000000
1PROGRAM * RHF-SCF (OPEN SHELL)       Authors: W. Meyer, H.-J. Werner


 NUMBER OF ELECTRONS:       5+    3-
 CONVERGENCE THRESHOLDS:    1.00E-10 (Density)    1.00E-11 (Energy)
 MAX. NUMBER OF ITERATIONS:       60
 INTERPOLATION TYPE:            DIIS
 INTERPOLATION STEPS:              2 (START)      1 (STEP)
 LEVEL SHIFTS:                 -0.60 (CLOSED) -0.30 (OPEN) 



 Molecular orbitals read from record     2100.2  Type=RHF/CANONICAL (state 1.2)

 Molecular orbital dump at record        2100.2

 ITERATION    DDIFF          GRAD             ENERGY        2-EL.EN.            DIPOLE MOMENTS         DIIS   ORB.
    1      0.000D+00      0.000D+00       -38.92132292     37.481246    0.00000    0.21711    0.00000    0    start
    2      0.000D+00      0.608D-12       -38.92132292     37.481246    0.00000    0.21711    0.00000    0    orth

 Final alpha occupancy:   3   1   1   0
 Final beta  occupancy:   2   0   1   0

 !RHF STATE 1.2 Energy                -38.921322921734
 Nuclear energy                         6.05977474
 One-electron energy                  -63.72172071
 Two-electron energy                   18.74062305
 Virial quotient                       -1.00206463
 !RHF STATE 1.2 Dipole moment           0.00000000     0.21711082     0.00000000
 Dipole moment /Debye                   0.00000000     0.55180451     0.00000000

 Orbital energies:

         1.1          2.1          3.1          4.1          5.1
    -11.250222    -0.844353    -0.468023     0.195922     0.590091

         1.2          2.2          3.2
     -0.401104     0.657104     1.292155

         1.3          2.3          3.3
     -0.591100     0.254806     0.664211

         1.4          2.4
      1.155109     2.159659

 HOMO      1.2    -0.401104 =     -10.9146eV
 LUMO      4.1     0.195922 =       5.3313eV
 LUMO-HOMO         0.597027 =      16.2459eV


 **********************************************************************************************************************************
 DATASETS  * FILE   NREC   LENGTH (MB)   RECORD NAMES
              1      18       19.10       500      610      700      900      950      970     1000      129      960     1100   
                                          VAR    BASINP    GEOM    SYMINP    ZMAT    AOBASIS   BASIS     P2S    ABASIS      S 
                                         1400     1410     1200     1210     1080     1600     1650     1700   
                                           T        V       H0       H01     AOSYM     SMH    MOLCAS    OPER   

              2       8        0.41       700     1000      520     2100     5600     5300     5400     5450   
                                         GEOM     BASIS   MCVARS     RHF     GINFO    HESS     FREQ     NMOD   

 PROGRAMS   *        TOTAL       RHF      OPTG  UCCSD(T)       RHF       INT
 CPU TIMES  *        16.27      0.16      8.50      0.08      0.01      0.19
 REAL TIME  *        20.71 SEC
 DISK USED  *        75.41 MB      
 SF USED    *         1.79 MB      
 GA USED    *         0.00 MB       (max)       0.00 MB       (current)
 **********************************************************************************************************************************


1PROGRAM * CCSD (Unrestricted open-shell coupled cluster)     Authors: C. Hampel, H.-J. Werner, 1991, M. Deegan, P.J. Knowles, 1992


 Convergence thresholds:  THRVAR = 1.00D-14  THRDEN = 1.00D-10

 CCSD(T)     terms to be evaluated (factor= 1.000)


 Number of core orbitals:           1 (   1   0   0   0 )
 Number of closed-shell orbitals:   2 (   1   0   1   0 )
 Number of active  orbitals:        2 (   1   1   0   0 )
 Number of external orbitals:      19 (   8   3   6   2 )

 Memory could be reduced to 0.33 Mwords without degradation in triples

 Number of N-1 electron functions:               6
 Number of N-2 electron functions:              15
 Number of singly external CSFs:                43
 Number of doubly external CSFs:              1462
 Total number of CSFs:                        1505

 Molecular orbitals read from record     2100.2  Type=RHF/CANONICAL (state 1.2)

 Integral transformation finished. Total CPU:   0.01 sec, npass=  1  Memory used:   0.07 MW

 Starting RMP2 calculation

 ITER.      SQ.NORM     CORR.ENERGY   TOTAL ENERGY   ENERGY CHANGE        DEN1      VAR(S)    VAR(P)  DIIS     TIME
   1      1.03431922    -0.09731261   -39.01863554    -0.09731261    -0.00051420  0.22D-04  0.17D-03  1  1     0.01
   2      1.03479642    -0.09787879   -39.01920172    -0.00056618    -0.00000098  0.31D-06  0.24D-06  2  2     0.01
   3      1.03480726    -0.09788516   -39.01920808    -0.00000637    -0.00000001  0.59D-08  0.60D-09  3  3     0.01
   4      1.03480787    -0.09788542   -39.01920835    -0.00000026    -0.00000000  0.52D-10  0.76D-11  4  4     0.01
   5      1.03480790    -0.09788543   -39.01920835    -0.00000001    -0.00000000  0.28D-12  0.90D-13  5  5     0.01
   6      1.03480790    -0.09788543   -39.01920835    -0.00000000    -0.00000000  0.16D-14  0.39D-15  6  6     0.01
   7      1.03480790    -0.09788543   -39.01920835     0.00000000    -0.00000000  0.20D-16  0.35D-17  6  1     0.01

 Norm of t1 vector:      0.04364537      S-energy:    -0.00276181      T1 diagnostic:  0.00114275
 Norm of t2 vector:      0.18139180      P-energy:    -0.09512362
                                         Alpha-Beta:  -0.07413692
                                         Alpha-Alpha: -0.01906164
                                         Beta-Beta:   -0.00192506

 Spin contamination <S**2-Sz**2-Sz>     0.00983010
  Reference energy                    -38.921322921734
  RHF-RMP2 correlation energy          -0.097885431989
 !RHF-RMP2 energy                     -39.019208353723

 Starting UCCSD calculation

 ITER.      SQ.NORM     CORR.ENERGY   TOTAL ENERGY   ENERGY CHANGE        DEN1      VAR(S)    VAR(P)  DIIS     TIME
   1      1.04556729    -0.11107327   -39.03239619    -0.11107327    -0.00529991  0.30D-03  0.17D-02  1  1     0.01
   2      1.05284567    -0.11764808   -39.03897101    -0.00657481    -0.00023583  0.50D-04  0.68D-04  2  2     0.01
   3      1.05471132    -0.11842247   -39.03974540    -0.00077439    -0.00002320  0.65D-05  0.75D-05  3  3     0.02
   4      1.05542523    -0.11863015   -39.03995307    -0.00020767    -0.00000258  0.84D-06  0.82D-06  4  4     0.02
   5      1.05555523    -0.11863268   -39.03995560    -0.00000253    -0.00000025  0.85D-07  0.74D-07  5  5     0.02
   6      1.05558592    -0.11864299   -39.03996591    -0.00001031    -0.00000002  0.80D-08  0.69D-08  6  6     0.02
   7      1.05558675    -0.11864201   -39.03996493     0.00000098    -0.00000000  0.66D-09  0.72D-09  6  1     0.03
   8      1.05558691    -0.11864204   -39.03996497    -0.00000004    -0.00000000  0.68D-10  0.86D-10  6  3     0.03
   9      1.05558665    -0.11864194   -39.03996486     0.00000011    -0.00000000  0.95D-11  0.10D-10  6  2     0.03
  10      1.05558665    -0.11864196   -39.03996488    -0.00000002    -0.00000000  0.11D-11  0.10D-11  6  4     0.03
  11      1.05558667    -0.11864196   -39.03996488     0.00000000    -0.00000000  0.93D-13  0.12D-12  6  5     0.03
  12      1.05558671    -0.11864197   -39.03996489    -0.00000001    -0.00000000  0.15D-13  0.27D-13  6  6     0.04
  13      1.05558674    -0.11864198   -39.03996490    -0.00000001    -0.00000000  0.36D-14  0.51D-14  6  1     0.04
  14      1.05558675    -0.11864198   -39.03996490    -0.00000000    -0.00000000  0.32D-15  0.41D-15  6  2     0.04
  15      1.05558676    -0.11864198   -39.03996490    -0.00000000    -0.00000000  0.73D-17  0.16D-16  6  3     0.05
  16      1.05558676    -0.11864198   -39.03996490    -0.00000000    -0.00000000  0.88D-18  0.22D-17  6  4     0.05

 Norm of t1 vector:      0.06878052      S-energy:    -0.00364779      T1 diagnostic:  0.00878060
                                                                       D1 diagnostic:  0.01460254
 Norm of t2 vector:      0.22551274      P-energy:    -0.11499419
                                         Alpha-Beta:  -0.09221001
                                         Alpha-Alpha: -0.02103180
                                         Beta-Beta:   -0.00175238

 Spin contamination <S**2-Sz**2-Sz>     0.00217402

 Memory could be reduced to 0.33 Mwords without degradation in triples
 

 RESULTS
 =======

  Reference energy                    -38.921322921734
  UCCSD singles energy                 -0.003647786949
  UCCSD pair energy                    -0.114994191869
  UCCSD correlation energy             -0.118641978818
  Triples (T) contribution             -0.001807819866
  Total correlation energy             -0.120449798684
 
  RHF-UCCSD energy                    -39.039964900552
  RHF-UCCSD[T] energy                 -39.041776987775
  RHF-UCCSD-T energy                  -39.041762610222
 !RHF-UCCSD(T) energy                 -39.041772720418

 Program statistics:

 Available memory in ccsd:               999999732
 Min. memory needed in ccsd:                  9466
 Max. memory used in ccsd:                   10703
 Max. memory used in cckext:                 42390 (16 integral passes)
 Max. memory used in cckint:                 71885 ( 1 integral passes)



 **********************************************************************************************************************************
 DATASETS  * FILE   NREC   LENGTH (MB)   RECORD NAMES
              1      18       19.10       500      610      700      900      950      970     1000      129      960     1100   
                                          VAR    BASINP    GEOM    SYMINP    ZMAT    AOBASIS   BASIS     P2S    ABASIS      S 
                                         1400     1410     1200     1210     1080     1600     1650     1700   
                                           T        V       H0       H01     AOSYM     SMH    MOLCAS    OPER   

              2       8        0.41       700     1000      520     2100     5600     5300     5400     5450   
                                         GEOM     BASIS   MCVARS     RHF     GINFO    HESS     FREQ     NMOD   

 PROGRAMS   *        TOTAL  UCCSD(T)      OPTG  UCCSD(T)       RHF       INT
 CPU TIMES  *        16.35      0.08      8.50      0.08      0.01      0.19
 REAL TIME  *        20.80 SEC
 DISK USED  *        75.41 MB      
 SF USED    *         1.79 MB      
 GA USED    *         0.00 MB       (max)       0.00 MB       (current)
 **********************************************************************************************************************************


 **********************************************************************************************************************************
 DATASETS  * FILE   NREC   LENGTH (MB)   RECORD NAMES
              1      18       19.10       500      610      700      900      950      970     1000      129      960     1100   
                                          VAR    BASINP    GEOM    SYMINP    ZMAT    AOBASIS   BASIS     P2S    ABASIS      S 
                                         1400     1410     1200     1210     1080     1600     1650     1700   
                                           T        V       H0       H01     AOSYM     SMH    MOLCAS    OPER   

              2       8        0.41       700     1000      520     2100     5600     5300     5400     5450   
                                         GEOM     BASIS   MCVARS     RHF     GINFO    HESS     FREQ     NMOD   

 PROGRAMS   *        TOTAL      FREQ      OPTG  UCCSD(T)       RHF       INT
 CPU TIMES  *        16.35      7.44      8.50      0.08      0.01      0.19
 REAL TIME  *        20.80 SEC
 DISK USED  *        75.41 MB      
 SF USED    *         1.79 MB      
 GA USED    *         0.00 MB       (max)       0.00 MB       (current)
 **********************************************************************************************************************************

 UCCSD(T)/cc-pVDZ energy=    -39.041772720418

  OPTG(UCCSD(T))        UCCSD(T)        RHF-SCF 
    -39.04177272    -39.03592534    -38.91826008
 **********************************************************************************************************************************
 Variable memory released
