
 Primary working directories    : /scratch/kmoore
 Secondary working directories  : /scratch/kmoore
 Wavefunction directory         : /scratch/kmoore/
 Main file repository           : /scratch/kmoore/

 SHA1      : b6b3a4772808bb2d43777f23454e145ddfe12dc3
 NAME      : 2015.1.1
 ARCHNAME  : linux/x86_64
 FC        : /soft/mvapich2/2.2b_psm/intel-15.0/bin/mpif90
 BLASLIB   : -L/soft/intel/15.0.1/composer_xe_2015.0.090/mkl/lib/intel64 -lmkl_intel_ilp64 -lmkl_sequential -lmkl_core
 id        : anlgov

 Nodes     nprocs
 b441         7
 Number of processes for MPI-2 version of Molpro:   nprocs(total)=    8   nprocs(compute)=    7   nprocs(helper)=    1

 Using customized tuning parameters: mindgm=1; mindgv=20; mindgc=4; mindgr=1; noblas=0; minvec=7
 default implementation of scratch files=sf  

 memory,950,m
 gthresh,energy=1.0d-10,orbital=1.0d-10
 
 nosym
 angstrom
 Geometry = {
 C      0.0000000000   0.0000000000  -0.0869009407
 H      0.0000000000   0.0000000000   1.0355449716
 }
 
 set,charge=0
 set,spin=1
 
 basis=cc-pVDZ
 {df-rhf,maxit=300}
 {df-luccsd(t),maxit=150}
 eDZ = energy
 
 basis=cc-pVTZ
 {df-rhf,maxit=300}
 {df-luccsd(t),maxit=150}
 eTZ = energy
 
 basis=cc-pVQZ
 {df-rhf,maxit=300}
 {df-luccsd(t),maxit=150}
 eQZ = energy
 
 basis=cc-pV5Z
 {df-rhf,maxit=300}
 {df-luccsd(t),maxit=150}
 e5Z = energy
 
 show,eDZ
 show,eTZ
 show,eQZ
 show,e5Z
 

 Variables initialized (889), CPU time= 0.00 sec
 Commands  initialized (702), CPU time= 0.01 sec, 572 directives.
 Default parameters read. Elapsed time= 0.11 sec

 Checking input...
 Passed
1


                                         ***  PROGRAM SYSTEM MOLPRO  ***
                                       Copyright, TTI GmbH Stuttgart, 2015
                                    Version 2015.1 linked Jan  8 2016 07:59:11


 **********************************************************************************************************************************
 LABEL *                                                                                 
  64 bit mpp version                                                                     DATE: 17-Dec-18          TIME: 14:00:43  
 **********************************************************************************************************************************

 SHA1:             b6b3a4772808bb2d43777f23454e145ddfe12dc3
 **********************************************************************************************************************************

 THRESHOLDS:

 ZERO    =  1.00D-12  ONEINT  =  1.00D-12  TWOINT  =  1.00D-11  PREFAC  =  1.00D-14  LOCALI  =  1.00D-09  EORDER  =  1.00D-04
 ENERGY  =  1.00D-10  ETEST   =  0.00D+00  EDENS   =  0.00D+00  THRDEDEF=  1.00D-06  GRADIENT=  1.00D-02  STEP    =  1.00D-03
 ORBITAL =  1.00D-10  CIVEC   =  1.00D-05  COEFF   =  1.00D-04  PRINTCI =  5.00D-02  PUNCHCI =  9.90D+01  OPTGRAD =  3.00D-04
 OPTENERG=  1.00D-06  OPTSTEP =  3.00D-04  THRGRAD =  1.00D-10  COMPRESS=  1.00D-11  VARMIN  =  1.00D-07  VARMAX  =  1.00D-03
 THRDOUB =  0.00D+00  THRDIV  =  1.00D-05  THRRED  =  1.00D-07  THRPSP  =  1.00D+00  THRDC   =  1.00D-10  THRCS   =  1.00D-10
 THRNRM  =  1.00D-08  THREQ   =  0.00D+00  THRDE   =  1.00D+00  THRREF  =  1.00D-05  SPARFAC =  1.00D+00  THRDLP  =  1.00D-07
 THRDIA  =  1.00D-10  THRDLS  =  1.00D-07  THRGPS  =  0.00D+00  THRKEX  =  0.00D+00  THRDIS  =  2.00D-01  THRVAR  =  1.00D-10
 THRLOC  =  1.00D-06  THRGAP  =  1.00D-06  THRLOCT = -1.00D+00  THRGAPT = -1.00D+00  THRORB  =  1.00D-06  THRMLTP =  0.00D+00
 THRCPQCI=  1.00D-10  KEXTA   =  0.00D+00  THRCOARS=  0.00D+00  SYMTOL  =  1.00D-06  GRADTOL =  1.00D-06  THROVL  =  1.00D-08
 THRORTH =  1.00D-08  GRID    =  1.00D-06  GRIDMAX =  1.00D-03  DTMAX   =  0.00D+00  THROCCDE=  1.00D-01  THROCCDE=  1.00D-01



 Variable memory set to  950000000 words,  buffer space   230000 words

 ZSYMEL=NOSYM
 ZUNIT=ANG
 

Geometry recognized as XYZ

 SETTING CHARGE         =     0.00000000D+00                                  
 SETTING SPIN           =         1.00000000                                  
 SETTING BASIS          =    CC-PVDZ


 Recomputing integrals since basis changed


 Using spherical harmonics

 Library entry C      S cc-pVDZ              selected for orbital group  1
 Library entry C      P cc-pVDZ              selected for orbital group  1
 Library entry C      D cc-pVDZ              selected for orbital group  1
 Library entry H      S cc-pVDZ              selected for orbital group  2
 Library entry H      P cc-pVDZ              selected for orbital group  2

1PROGRAM * SEWARD (Integral evaluation for generally contracted gaussian basis sets)     Author: Roland Lindh, 1990

 Geometry written to block  1 of record 700


 Point group  C1  



 ATOMIC COORDINATES

 NR  ATOM    CHARGE       X              Y              Z

   1  C       6.00    0.000000000    0.000000000   -0.164218978
   2  H       1.00    0.000000000    0.000000000    1.956896386

 Bond lengths in Bohr (Angstrom)

 1-2  2.121115364
     ( 1.122445912)

 NUCLEAR CHARGE:                    7
 NUMBER OF PRIMITIVE AOS:          34
 NUMBER OF SYMMETRY AOS:           33
 NUMBER OF CONTRACTIONS:           19   (  19A   )
 NUMBER OF CORE ORBITALS:           1   (   1A   )
 NUMBER OF VALENCE ORBITALS:        5   (   5A   )


 NUCLEAR REPULSION ENERGY    2.82870046

 EXTRA SYMMETRY OF AOS IN SYMMETRY 1:   1 1 1 2 3 1 2 3 1 1   4 2 5 3 1 1 2 3 1

 Eigenvalues of metric

         1 0.222E-01 0.485E-01 0.110E+00 0.142E+00 0.176E+00 0.176E+00 0.511E+00 0.511E+00


 OPERATOR DM      FOR CENTER  0  COORDINATES:    0.000000    0.000000    0.000000


 **********************************************************************************************************************************
 DATASETS  * FILE   NREC   LENGTH (MB)   RECORD NAMES
              1      18       19.09       500      610      700      900      950      970     1000      129      960     1100   
                                          VAR    BASINP    GEOM    SYMINP    ZMAT    AOBASIS   BASIS     P2S    ABASIS      S 
                                         1400     1410     1200     1210     1080     1600     1650     1700   
                                           T        V       H0       H01     AOSYM     SMH    MOLCAS    OPER   

 PROGRAMS   *        TOTAL       INT
 CPU TIMES  *         0.43      0.21
 REAL TIME  *         0.93 SEC
 DISK USED  *         0.00 MB      
 GA USED    *         0.00 MB       (max)       0.00 MB       (current)
 **********************************************************************************************************************************

1PROGRAM * RHF-SCF (OPEN SHELL)       Authors: W. Meyer, H.-J. Werner


 NUMBER OF ELECTRONS:       4+    3-    SPACE SYMMETRY=1    SPIN SYMMETRY: Doublet 
 CONVERGENCE THRESHOLDS:    1.00E-10 (Density)    1.00E-11 (Energy)
 INTEGRAL THRESHOLDS:       1.00E-12 (Initial)    1.00E-12 (Final)
 MAX. NUMBER OF ITERATIONS:      300
 INTERPOLATION TYPE:            DIIS
 INTERPOLATION STEPS:              2 (START)      1 (STEP)
 LEVEL SHIFTS:                 -0.60 (CLOSED) -0.30 (OPEN) 



 
 Basis set CC-PVDZ/JKFIT generated.      Number of basis functions:   93 
 
 Orbital guess generated from atomic densities. Full valence occupancy:    6
 Using density fitting in orbital guess
 
 Coulomb and exchange fitting
 Thresholds for fitting:       THRAO_COUL= 1.0D-15    THRAO_EXCH= 1.0D-13    THRMO= 1.0D-12    THRPROD= 1.0D-12    THRASM= 1.0D-12
                               THR2HLF=    1.0D-12

 Molecular orbital dump at record        2100.2

 Initial alpha occupancy:   4
 Initial beta  occupancy:   3
 Wave function symmetry:    1

 ITERATION   DDIFF            GRAD            ENERGY        2-EL.EN.            DIPOLE MOMENTS         DIIS   CPU(IT)  CPU(TOT)  ORB.
    1      0.000D+00      0.000D+00       -38.25383905     30.168310   -0.00000    0.00000    0.73072    0      0.0      0.0     start
    2      0.000D+00      0.118D-01       -38.26730498     30.810918   -0.00000   -0.00000    0.68731    1      0.0      0.0     diag,B
    3      0.270D-01      0.327D-02       -38.26865410     31.003032   -0.00000   -0.00000    0.65569    2      0.0      0.0     diag,B
    4      0.948D-02      0.816D-03       -38.26875771     31.017811   -0.00000   -0.00000    0.64154    3      0.0      0.0     diag,B
    5      0.297D-02      0.221D-03       -38.26876806     31.017422   -0.00000    0.00000    0.63681    4      0.0      0.0     diag,B
    6      0.786D-03      0.756D-04       -38.26876959     31.017176   -0.00000    0.00000    0.63436    5      0.0      0.0     diag,B
    7      0.363D-03      0.219D-04       -38.26876971     31.016709   -0.00000    0.00000    0.63338    6      0.0      0.1     fixocc
    8      0.126D-03      0.509D-05       -38.26876972     31.016762   -0.00000   -0.00000    0.63314    7      0.0      0.1     diag,B
    9      0.238D-04      0.101D-05       -38.26876972     31.016721   -0.00000    0.00000    0.63312    8      0.0      0.1     diag,B
   10      0.461D-05      0.325D-06       -38.26876972     31.016723   -0.00000    0.00000    0.63311    9      0.0      0.1     orth
   11      0.129D-05      0.557D-07       -38.26876972     31.016723   -0.00000    0.00000    0.63311    9      0.0      0.1     diag,B
   12      0.236D-06      0.109D-07       -38.26876972     31.016722   -0.00000    0.00000    0.63311    9      0.0      0.1     diag,B
   13      0.453D-07      0.231D-08       -38.26876972     31.016722   -0.00000    0.00000    0.63311    9      0.0      0.1     diag,B
   14      0.633D-08      0.752D-09       -38.26876972     31.016722   -0.00000    0.00000    0.63311    9      0.0      0.1     diag,B
   15      0.263D-08      0.134D-09       -38.26876972     31.016722   -0.00000    0.00000    0.63311    9      0.0      0.1     diag,B
   16      0.541D-09      0.166D-10       -38.26876972     31.016722   -0.00000    0.00000    0.63311    9      0.0      0.1     diag,B
   17      0.702D-10      0.664D-11       -38.26876972     31.016722   -0.00000    0.00000    0.63311    0      0.0      0.1     orth

 Final alpha occupancy:   4
 Final beta  occupancy:   3

 !RHF STATE 1.1 Energy                -38.268769719741
 Nuclear energy                         2.82870046
 One-electron energy                  -56.60583140
 Two-electron energy                   15.50836122
 Virial quotient                       -1.00073205
 !RHF STATE 1.1 Dipole moment          -0.00000000     0.00000000     0.63311081
 Dipole moment /Debye                  -0.00000000     0.00000000     1.60910178

 Orbital energies:

         1.1          2.1          3.1          4.1          5.1          6.1
    -11.314367    -0.826083    -0.448962    -0.410285     0.049044     0.207658

 HOMO      4.1    -0.410285 =     -11.1644eV
 LUMO      5.1     0.049044 =       1.3346eV
 LUMO-HOMO         0.459329 =      12.4990eV


 **********************************************************************************************************************************
 DATASETS  * FILE   NREC   LENGTH (MB)   RECORD NAMES
              1      18       19.09       500      610      700      900      950      970     1000      129      960     1100   
                                          VAR    BASINP    GEOM    SYMINP    ZMAT    AOBASIS   BASIS     P2S    ABASIS      S 
                                         1400     1410     1200     1210     1080     1600     1650     1700   
                                           T        V       H0       H01     AOSYM     SMH    MOLCAS    OPER   

              2       4        0.39       700     1000      520     2100   
                                         GEOM     BASIS   MCVARS     RHF  

 PROGRAMS   *        TOTAL       RHF       INT
 CPU TIMES  *         0.52      0.09      0.21
 REAL TIME  *         1.04 SEC
 DISK USED  *       137.01 MB      
 SF USED    *         0.15 MB      
 GA USED    *         3.27 MB       (max)       0.00 MB       (current)
 **********************************************************************************************************************************


 Input parameters for LOCAL:

 LOCAL  =    5.000000
 THRLOC =   -1.000000
 MAXIT  =  150.000000

1PROGRAM * CCSD (Unrestricted open-shell coupled cluster)     Authors: C. Hampel, H.-J. Werner, 1991, M. Deegan, P.J. Knowles, 1992

                    Density fitting coupled cluster methods (ITF), W. Gyorffy, 2015

                              Local implementation by Y. Liu and H.-J. Werner, 2009


 Setting use_dist= 1
 Basis set CC-PVDZ/MP2FIT generated.     Number of basis functions:   70 

 Convergence thresholds:  THRVAR = 1.00D-08  THRDEN = 1.00D-10

 CCSD(T)     terms to be evaluated (factor= 1.000)


 Number of core orbitals:           1 (   1 )
 Number of closed-shell orbitals:   2 (   2 )
 Number of active  orbitals:        1 (   1 )
 Number of external orbitals:      15 (  15 )

 Options for lccsd:

   local=       4
   itripl=      1
   iopdom=      5
   isdom=       2
   i3ext=       3
   i4ext=       1

 Using operators K(Cij)  

 icfit_3ext= 2  icfit_4ext= 2
 locfit_ccsd=0  locfit_2ext=0  locfit_3ext=0  locfit_4ext=0  locfit=*

 Molecular orbitals read from record     2100.2  Type=RHF/CANONICAL (state 1.1)

 Local correlation treatment
 ===========================

 LOCAL=5  IBASO=0  NONORM=0  IDLCOR=2  KEEPCORE=0  SKIPD=3  LOCSNG=0  LOCMUL=0  CANBLK=0  SHELLPERM=F

 Thresholds:

 THRLOC=  1.00D-06 (Smallest allowed eigenvalue in domain redundancy check)
 THRGAP=  1.00D-06 (Minimum eigenvalue gap in domain redundancy check)
 THRLOCT= 1.00D-06 (Smallest allowed eigenvalue in domain redundancy check of triples)
 THRGAPT= 1.00D-06 (Minimum eigenvalue gap in domain redundancy check of triples)
 THRORB=  1.00D-06 (Norm of projected orbitals)
 THRMP2=  1.00D-08 (Neglect of small Fock matrix elements)

 Orbital domain selection criteria:

 CHGFRAC=  0.980   CHGMIN=   0.010   CHGMINH=  0.030   CHGMAX=  0.400   CHGMIN_PAIRS=  0.200    MERGEDOM=0   CANBLK=0

 Weak and distant pair selection criteria:

 RCLOSE= 1.000   RWEAK= 3.000   RDIST= 8.000   RVDIST=15.000   KEEPCLS=0   KEEPCLS_3EXT=0   MP4CLS=0

 Options for approximating pair-single interactions:   JEDOM= 0   RMAX3X= 0.000   SKIPGE=0
 
 Open shell orbital   4.1 in localization group 2

 Pipek-Mezey localisation finished (npass=  2  nrot=      1  Thresh=  0.10D-08  CPU=   0.00 sec)

 Ordering localized MOs according to charge centroids

 Generating projected atomic orbitals
 
 Deleting projected core orbital    1.1 (C 1s)    Norm=  0.17D-02

 Ranking of atoms according to Loewdin charges

 Orbital domains

   Orb.   Atom     Charge      Crit.
   2.1    1 C       1.94       0.998
   3.1    1 C       1.19       0.000
          2 H       0.81       1.000
   4.1    1 C       1.96       1.000

 Number of strong pairs:           6

 Using   7 processors for pair domains. ntask=      6  ngroup=    1  minbatch=    1  maxbatch=    1

 Average pair domain sizes:       16    (strong pairs:  16, close pairs:   0, weak pairs:   0, distant pairs:   0)
 Number of redundant orbitals:     9

 Largest S-eigenvalue of redundant functions:  0.4412D-16   Pair:   2  Symmetry: 1
 Smallest S-eigenvalue of domains              0.3076D-03   Pair:   1  Symmetry: 1

 United MP2 domains:        min=  18  max=  18  average=  18
 United LUCCSD domains:     min=  18  max=  18  average=  18

 Number of correlated orbitals in LUCCSD:   3
 Total United LUCCSD domain size:          18

 CPU-time for pair domains:             0.05 SEC

 Distance criteria for operator lists:     RMAXJ=      8.00  RMAXK=      8.00  RMAXL=     15.00
 Distance criteria for operator domains:   RDOMJ=      0.00  RDOMK=      8.00

 Using operator domains:    iopdom=5   sdom=2  kextyp=0   triptyp=2

 Number of orbital pairs:          6
 Length of K(kl) list:             6
 Number of operators K(kl):        6 (  0.01 MB)   Domain sizes:    min=  18  max=  18  average=  18
 Number of operators J(kl):        6 (  0.01 MB)   Domain sizes:    min=  18  max=  18  average=  18
 Number of y,z intermediates:      9
 Number of operators J/K(E):       9 (  0.04 MB)   Domain sizes:    min=  18  max=  18  average=  18

 Number of orbital triples:        7  Number of 3-external CSFS:          39783

 Triples domains:           min=  14  max=  19  average=  18
 United T domains:          min=  19  max=  19  average=  19
 Triples per orbital:       min=   5  max=   5  average=   5
 
 File size for 4-external integrals using center quadruplets:  433.164 KB

 Number of N-1 electron functions:               5
 Number of N-2 electron functions:              10
 Number of singly external CSFs:                77
 Number of doubly external CSFs:              2440
 Total number of CSFs:                        2517

 Number of correlated orbitals:                  3
 Number of strong pair functions:                6
 Total number of pair functions:                 6
 Number of singly external local CSFs:          47
 Number of doubly external local CSFs:        1318 (all pairs)      1318 (strong pairs)         0 (weak pairs)
 Total number of local CSFs:                  1366 (all pairs)      1366 (strong pairs)

 Using 3-external integrals

 File size for 3-external integrals using MO/center triples:   123.797 KB
 Memory available:                       949995642 words
 Memory left for 3ext caching:           949835350 words

 Minimum memory for triples:                 28300 words

 Used memory for triples:                   147215 words
 caching ratio 3-ext integrals:  100.0%
 minimal number of LMOs cached:      3
 estimated number of LMOs cached:    3
 
 AO-basis loaded. Number of functions:                  19

 Fitting-basis CC-PVDZ-MP2FIT loaded for 0-2-external integrals.

 Number of fitting functions:                       70
 CPU time for 2-ext exchange integrals            0.00 sec, Elapsed time=      0.00 sec

 Using incore algorithm in dfasmbl_coul, locfit=0

 CPU time for 2-ext Coulomb integrals             0.01 sec, Elapsed time=      0.01 sec
 CPU time for DF-2ext transformation (total)      0.01 sec, Elapsed time=      0.01 sec
 Local fitting disabled for 3-ext integrals

 Fitting-basis CC-PVDZ-MP2FIT loaded for 3-external integrals.

 Number of fitting functions:                       70
 CPU time for DF-3ext transformations             1.94 sec, Elapsed time=      3.09 sec (including assembly of 3ext integrals)

 2-ext integrals generated in 3-ext are re-used
 
 Fitting-basis CC-PVDZ-MP2FIT loaded for 4-external integrals.

 Number of fitting functions:                       70
 Distributing 4-ext file on two disks:               33760               21685               55445
 CPU time for DF-4ext transformations             0.00 sec, Elapsed time=      0.00 sec

 Reference energy:                    -38.26876972

 ITER.     SQ.NORM      CORR.ENERGY   TOTAL ENERGY   ENERGY CHANGE        DEN1      VAR(S)    VAR(P)  DIIS     TIME
   1      1.03163147    -0.08218022   -38.35094994    -0.08218022    -0.00106122  0.59D-05  0.54D-03  1  1     2.04
   2      1.03249393    -0.08306843   -38.35183815    -0.00088820    -0.00004132  0.19D-06  0.26D-04  2  2     2.04
   3      1.03262663    -0.08319249   -38.35196221    -0.00012406    -0.00000127  0.23D-07  0.73D-06  3  3     2.04
   4      1.03264429    -0.08320475   -38.35197447    -0.00001226    -0.00000006  0.28D-09  0.41D-07  4  4     2.05
   5      1.03264862    -0.08320699   -38.35197671    -0.00000225    -0.00000000  0.60D-10  0.17D-08  5  5     2.05
   6      1.03264890    -0.08320716   -38.35197688    -0.00000017    -0.00000000  0.51D-12  0.17D-10  6  6     2.05
   7      1.03264893    -0.08320716   -38.35197688     0.00000001    -0.00000000  0.96D-13  0.13D-11  6  1     2.05
   8      1.03264893    -0.08320716   -38.35197688    -0.00000000    -0.00000000  0.16D-14  0.23D-14  6  2     2.05
   9      1.03264893    -0.08320716   -38.35197688    -0.00000000    -0.00000000  0.24D-16  0.80D-16  6  3     2.05
  10      1.03264893    -0.08320716   -38.35197688     0.00000000    -0.00000000  0.16D-17  0.27D-16  6  4     2.05
  11      1.03264893    -0.08320716   -38.35197688     0.00000000    -0.00000000  0.66D-19  0.63D-18  6  5     2.05

 Spin contamination <S**2-Sz**2-Sz>     0.00495532

 Norm of t1 vector:      0.03712850      S-energy:    -0.00250884      T1 diagnostic:  0.00121575
 Norm of t2 vector:      0.17683440      P-energy:    -0.08069832
                                         Alpha-Beta:  -0.06914273
                                         Alpha-Alpha: -0.00915611
                                         Beta-Beta:   -0.00239948


 Reference energy                     -38.268769719741
 Correlation energy                    -0.083207162231
 !RHF-LRMP2 STATE 1.1 Energy          -38.351976881972

 Starting LUCCSD calculation

 Reference energy:                    -38.26876972

 ITER.     SQ.NORM      CORR.ENERGY   TOTAL ENERGY   ENERGY CHANGE        DEN1      VAR(S)    VAR(P)  DIIS     TIME
   1      1.04861708    -0.09944276   -38.36821248    -0.09944276    -0.00478614  0.16D-03  0.19D-02  1  1     2.06
   2      1.05660915    -0.10501205   -38.37378177    -0.00556929    -0.00091891  0.36D-04  0.42D-03  2  2     2.07
   3      1.06362324    -0.10830520   -38.37707492    -0.00329315    -0.00026384  0.12D-04  0.13D-03  3  3     2.09
   4      1.06634989    -0.10878846   -38.37755818    -0.00048326    -0.00004687  0.17D-05  0.26D-04  4  4     2.10
   5      1.06736033    -0.10896980   -38.37773952    -0.00018134    -0.00001055  0.82D-07  0.62D-05  5  5     2.11
   6      1.06783383    -0.10903172   -38.37780144    -0.00006193    -0.00000334  0.16D-07  0.19D-05  6  6     2.13
   7      1.06818554    -0.10907051   -38.37784023    -0.00003878    -0.00000076  0.12D-07  0.44D-06  6  1     2.14
   8      1.06828884    -0.10908713   -38.37785685    -0.00001662    -0.00000005  0.37D-08  0.28D-07  6  2     2.16
   9      1.06832274    -0.10909433   -38.37786405    -0.00000720    -0.00000001  0.47D-09  0.26D-08  6  3     2.17
  10      1.06832549    -0.10909457   -38.37786429    -0.00000024    -0.00000000  0.21D-10  0.25D-09  6  4     2.18
  11      1.06833049    -0.10909532   -38.37786504    -0.00000075    -0.00000000  0.55D-11  0.73D-10  6  6     2.20
  12      1.06833216    -0.10909567   -38.37786539    -0.00000035    -0.00000000  0.13D-11  0.65D-11  6  5     2.21
  13      1.06833197    -0.10909570   -38.37786542    -0.00000003    -0.00000000  0.31D-12  0.13D-11  6  1     2.22
  14      1.06833193    -0.10909567   -38.37786539     0.00000002    -0.00000000  0.67D-13  0.24D-12  6  3     2.24
  15      1.06833196    -0.10909567   -38.37786539     0.00000001    -0.00000000  0.41D-14  0.37D-14  6  2     2.25
  16      1.06833195    -0.10909566   -38.37786538     0.00000000    -0.00000000  0.87D-15  0.31D-14  6  4     2.26
  17      1.06833193    -0.10909566   -38.37786538     0.00000000    -0.00000000  0.22D-15  0.22D-14  6  6     2.28
  18      1.06833192    -0.10909566   -38.37786538     0.00000000    -0.00000000  0.44D-16  0.21D-15  6  5     2.29
  19      1.06833192    -0.10909566   -38.37786538     0.00000000    -0.00000000  0.61D-17  0.39D-16  6  3     2.30
  20      1.06833192    -0.10909566   -38.37786538     0.00000000    -0.00000000  0.25D-18  0.31D-17  6  1     2.32

 Spin contamination <S**2-Sz**2-Sz>     0.00064770

 Norm of t1 vector:      0.05015492      S-energy:    -0.00286056      T1 diagnostic:  0.01153255
 Norm of t2 vector:      0.25654708      P-energy:    -0.10623510
                                         Alpha-Beta:  -0.09401615
                                         Alpha-Alpha: -0.00984952
                                         Beta-Beta:   -0.00236942

 ENTERING LOCAL TRIPLES SECTION
 computing T2S/ST2S on-the-fly
 Memory available:                       949943606 words
 Memory left for 3ext caching:           949800868 words

 Minimum memory for triples:                 10746 words

 Used memory for triples:                   129661 words
 caching ratio 3-ext integrals:  100.0%
 minimal number of LMOs cached:      3
 estimated number of LMOs cached:    3

 Parallel execution using 7 processors
 Number of tasks=7, Minbatch=1, Maxbatch=1, Batches per procesor=1, Shared_W=T, Shared_T=T, Dynamic=F

 PERCENTAGE OF AMPLITUDE     SINGLE CONTRIBUTION   DOUBLE CONTRIBUTION     CPUTIME(TRIPLE)
      10% finished                0.00000359           -0.00053164              0.00

 percentage hits 3ext-integral memory caching: 63.3 % (blocks), 63.3 % (words)
 percentage disk reads 3ext-integrals        : 36.7 % (words), overall:    453.922 KB

 (1) Triples without internal-internal couplings:

 CPU time for local triples(1):  User=0.03 sec, Sys=0.00 sec, Total=0.03 sec, Elapsed=0.01 sec

 Memory used:          278756 words
 etrip=


  RESULTS
  =======
 
  Reference energy                    -38.268769719741
 
  LUCCSD correlation energy            -0.109095659721
 !LUCCSD total energy                 -38.377865379463

  LUCCSD[T0] correlation energy        -0.110934736825   triples contribution= -0.001839077104
  LUCCSD[T0] total energy             -38.379704456567

  LUCCSD(T0) correlation energy        -0.110944308159   triples contribution= -0.001848648438
 !LUCCSD(T0) total energy             -38.379714027901

 Program statistics:

 Available memory:                       949999900
 Available memory in lrmp2:              949995373
 Max. memory used in lrmp2:                  16919
 Min. memory needed in lrmp2:                14157
 Available memory in luccsd:             949992773
 Max. memory used in luccsd:                 37295
 Min. memory needed in luccsd:               34533



 **********************************************************************************************************************************
 DATASETS  * FILE   NREC   LENGTH (MB)   RECORD NAMES
              1      18       19.09       500      610      700      900      950      970     1000      129      960     1100   
                                          VAR    BASINP    GEOM    SYMINP    ZMAT    AOBASIS   BASIS     P2S    ABASIS      S 
                                         1400     1410     1200     1210     1080     1600     1650     1700   
                                           T        V       H0       H01     AOSYM     SMH    MOLCAS    OPER   

              2       4        0.39       700     1000      520     2100   
                                         GEOM     BASIS   MCVARS     RHF  

 PROGRAMS   *        TOTAL LUCCSD(T)       RHF       INT
 CPU TIMES  *         2.88      2.34      0.09      0.21
 REAL TIME  *         4.91 SEC
 DISK USED  *       138.78 MB      
 SF USED    *         3.78 MB      
 GA USED    *         3.27 MB       (max)       0.00 MB       (current)
 **********************************************************************************************************************************
 SETTING EDZ            =       -38.37971403  AU                              
 SETTING BASIS          =    CC-PVTZ


 Recomputing integrals since basis changed


 Using spherical harmonics

 Library entry C      S cc-pVTZ              selected for orbital group  1
 Library entry C      P cc-pVTZ              selected for orbital group  1
 Library entry C      D cc-pVTZ              selected for orbital group  1
 Library entry C      F cc-pVTZ              selected for orbital group  1
 Library entry H      S cc-pVTZ              selected for orbital group  2
 Library entry H      P cc-pVTZ              selected for orbital group  2
 Library entry H      D cc-pVTZ              selected for orbital group  2

1PROGRAM * SEWARD (Integral evaluation for generally contracted gaussian basis sets)     Author: Roland Lindh, 1990

 Geometry written to block  1 of record 700


 Point group  C1  



 ATOMIC COORDINATES

 NR  ATOM    CHARGE       X              Y              Z

   1  C       6.00    0.000000000    0.000000000   -0.164218978
   2  H       1.00    0.000000000    0.000000000    1.956896386

 Bond lengths in Bohr (Angstrom)

 1-2  2.121115364
     ( 1.122445912)

 NUCLEAR CHARGE:                    7
 NUMBER OF PRIMITIVE AOS:          64
 NUMBER OF SYMMETRY AOS:           58
 NUMBER OF CONTRACTIONS:           44   (  44A   )
 NUMBER OF CORE ORBITALS:           1   (   1A   )
 NUMBER OF VALENCE ORBITALS:        5   (   5A   )


 NUCLEAR REPULSION ENERGY    2.82870046

 EXTRA SYMMETRY OF AOS IN SYMMETRY 1:   1 1 1 1 2 3 1 2 3 1   2 3 1 1 4 2 5 3 1 4   2 5 3 2 3 1 6 4 7 5   1 1 1 2 3 1 2 3 1 1
                                        4 2 5 3

 Eigenvalues of metric

         1 0.202E-02 0.815E-02 0.140E-01 0.375E-01 0.375E-01 0.399E-01 0.747E-01 0.112E+00


 OPERATOR DM      FOR CENTER  0  COORDINATES:    0.000000    0.000000    0.000000


 **********************************************************************************************************************************
 DATASETS  * FILE   NREC   LENGTH (MB)   RECORD NAMES
              1      18       19.15       500      610      700      900      950      970     1001      129      960     1100   
                                          VAR    BASINP    GEOM    SYMINP    ZMAT    AOBASIS   BASIS     P2S    ABASIS      S 
                                         1400     1410     1200     1210     1080     1600     1650     1700   
                                           T        V       H0       H01     AOSYM     SMH    MOLCAS    OPER   

              2       5        0.41       700     1000      520     2100     1001   
                                         GEOM     BASIS   MCVARS     RHF     BASIS   

 PROGRAMS   *        TOTAL       INT LUCCSD(T)       RHF       INT
 CPU TIMES  *         3.07      0.19      2.34      0.09      0.21
 REAL TIME  *         5.13 SEC
 DISK USED  *       138.78 MB      
 SF USED    *         3.78 MB      
 GA USED    *         3.27 MB       (max)       0.00 MB       (current)
 **********************************************************************************************************************************

1PROGRAM * RHF-SCF (OPEN SHELL)       Authors: W. Meyer, H.-J. Werner


 NUMBER OF ELECTRONS:       4+    3-    SPACE SYMMETRY=1    SPIN SYMMETRY: Doublet 
 CONVERGENCE THRESHOLDS:    1.00E-10 (Density)    1.00E-11 (Energy)
 INTEGRAL THRESHOLDS:       1.00E-12 (Initial)    1.00E-12 (Final)
 MAX. NUMBER OF ITERATIONS:      300
 INTERPOLATION TYPE:            DIIS
 INTERPOLATION STEPS:              2 (START)      1 (STEP)
 LEVEL SHIFTS:                 -0.60 (CLOSED) -0.30 (OPEN) 



 
 Basis set CC-PVTZ/JKFIT generated.      Number of basis functions:   109 
 
 Molecular orbitals read from record     2100.2  Type=RHF/CANONICAL (state 1.1)
 
 Present basis size:      44
 Previous basis size:     19
 Previous occupation:      4
 Previous closed-shells:   3
 Previous core-orbitals:   1
 Present occupation:       4
 Present closed-shells:    3
 Present core-orbitals:    1
 Wavefunction symmetry:    1   Doublet 

 Orbital overlap <old|new>:  < 1.1| 1.1> = 0.999998   < 2.1| 2.1> = 0.999917   < 3.1| 3.1> = 0.999792   < 4.1| 4.1> = 0.999688
 Coulomb and exchange fitting
 Thresholds for fitting:       THRAO_COUL= 1.0D-15    THRAO_EXCH= 1.0D-13    THRMO= 1.0D-12    THRPROD= 1.0D-12    THRASM= 1.0D-12
                               THR2HLF=    1.0D-12

 Molecular orbital dump at record        2101.2

 ITERATION   DDIFF            GRAD            ENERGY        2-EL.EN.            DIPOLE MOMENTS         DIIS   CPU(IT)  CPU(TOT)  ORB.
    1      0.000D+00      0.000D+00       -38.27467848     31.018974   -0.00000    0.00000    0.62746    0      0.0      0.0     start
    2      0.000D+00      0.444D-02       -38.27662993     31.024791    0.00000    0.00000    0.61568    1      0.0      0.0     diag,B
    3      0.659D-02      0.106D-02       -38.27683661     31.009725    0.00000    0.00000    0.61563    2      0.0      0.0     diag,B
    4      0.266D-02      0.232D-03       -38.27685811     31.001292    0.00000    0.00000    0.62053    3      0.0      0.0     diag,B
    5      0.763D-03      0.815D-04       -38.27686175     30.999544    0.00000    0.00000    0.62515    4      0.0      0.0     diag,B
    6      0.260D-03      0.255D-04       -38.27686219     31.000155    0.00000    0.00000    0.62719    5      0.0      0.0     diag,B
    7      0.812D-04      0.821D-05       -38.27686223     31.000353    0.00000   -0.00000    0.62781    6      0.0      0.1     diag,B
    8      0.424D-04      0.170D-05       -38.27686223     31.000348    0.00000   -0.00000    0.62788    7      0.0      0.1     orth
    9      0.877D-05      0.486D-06       -38.27686223     31.000346    0.00000   -0.00000    0.62788    8      0.0      0.1     diag,B
   10      0.222D-05      0.104D-06       -38.27686223     31.000346    0.00000   -0.00000    0.62788    9      0.0      0.1     diag,B
   11      0.309D-06      0.308D-07       -38.27686223     31.000346    0.00000   -0.00000    0.62788    9      0.0      0.1     diag,B
   12      0.129D-06      0.948D-08       -38.27686223     31.000346    0.00000   -0.00000    0.62788    9      0.0      0.1     diag,B
   13      0.495D-07      0.179D-08       -38.27686223     31.000346    0.00000   -0.00000    0.62788    9      0.0      0.1     diag,B
   14      0.679D-08      0.400D-09       -38.27686223     31.000346   -0.00000   -0.00000    0.62788    9      0.0      0.1     diag,B
   15      0.134D-08      0.974D-10       -38.27686223     31.000346   -0.00000   -0.00000    0.62788    9      0.0      0.1     diag,B
   16      0.285D-09      0.255D-10       -38.27686223     31.000346   -0.00000   -0.00000    0.62788    9      0.0      0.1     diag,B
   17      0.624D-10      0.785D-11       -38.27686223     31.000346   -0.00000   -0.00000    0.62788    0      0.0      0.1     orth

 Final alpha occupancy:   4
 Final beta  occupancy:   3

 !RHF STATE 1.1 Energy                -38.276862234341
 Nuclear energy                         2.82870046
 One-electron energy                  -56.60573575
 Two-electron energy                   15.50017306
 Virial quotient                       -1.00069751
 !RHF STATE 1.1 Dipole moment          -0.00000000    -0.00000000     0.62788312
 Dipole moment /Debye                  -0.00000000    -0.00000000     1.59581518

 Orbital energies:

         1.1          2.1          3.1          4.1          5.1          6.1
    -11.314014    -0.828256    -0.453495    -0.413860     0.037189     0.164582

 HOMO      4.1    -0.413860 =     -11.2617eV
 LUMO      5.1     0.037189 =       1.0120eV
 LUMO-HOMO         0.451049 =      12.2737eV


 **********************************************************************************************************************************
 DATASETS  * FILE   NREC   LENGTH (MB)   RECORD NAMES
              1      18       19.15       500      610      700      900      950      970     1001      129      960     1100   
                                          VAR    BASINP    GEOM    SYMINP    ZMAT    AOBASIS   BASIS     P2S    ABASIS      S 
                                         1400     1410     1200     1210     1080     1600     1650     1700   
                                           T        V       H0       H01     AOSYM     SMH    MOLCAS    OPER   

              2       6        0.58       700     1000      520     2100     1001     2101   
                                         GEOM     BASIS   MCVARS     RHF     BASIS     RHF  

 PROGRAMS   *        TOTAL       RHF       INT LUCCSD(T)       RHF       INT
 CPU TIMES  *         3.17      0.10      0.19      2.34      0.09      0.21
 REAL TIME  *         5.24 SEC
 DISK USED  *       140.41 MB      
 SF USED    *         3.78 MB      
 GA USED    *         3.27 MB       (max)       0.00 MB       (current)
 **********************************************************************************************************************************


 Input parameters for LOCAL:

 LOCAL  =    5.000000
 THRLOC =   -1.000000
 MAXIT  =  150.000000

1PROGRAM * CCSD (Unrestricted open-shell coupled cluster)     Authors: C. Hampel, H.-J. Werner, 1991, M. Deegan, P.J. Knowles, 1992

                    Density fitting coupled cluster methods (ITF), W. Gyorffy, 2015

                              Local implementation by Y. Liu and H.-J. Werner, 2009


 Setting use_dist= 1
 Basis set CC-PVTZ/MP2FIT generated.     Number of basis functions:   111 

 Convergence thresholds:  THRVAR = 1.00D-08  THRDEN = 1.00D-10

 CCSD(T)     terms to be evaluated (factor= 1.000)


 Number of core orbitals:           1 (   1 )
 Number of closed-shell orbitals:   2 (   2 )
 Number of active  orbitals:        1 (   1 )
 Number of external orbitals:      40 (  40 )

 Options for lccsd:

   local=       4
   itripl=      1
   iopdom=      5
   isdom=       2
   i3ext=       3
   i4ext=       1

 Using operators K(Cij)  

 icfit_3ext= 2  icfit_4ext= 2
 locfit_ccsd=0  locfit_2ext=0  locfit_3ext=0  locfit_4ext=0  locfit=*

 Molecular orbitals read from record     2101.2  Type=RHF/CANONICAL (state 1.1)

 Local correlation treatment
 ===========================

 LOCAL=5  IBASO=0  NONORM=0  IDLCOR=2  KEEPCORE=0  SKIPD=3  LOCSNG=0  LOCMUL=0  CANBLK=0  SHELLPERM=F

 Thresholds:

 THRLOC=  1.00D-06 (Smallest allowed eigenvalue in domain redundancy check)
 THRGAP=  1.00D-06 (Minimum eigenvalue gap in domain redundancy check)
 THRLOCT= 1.00D-06 (Smallest allowed eigenvalue in domain redundancy check of triples)
 THRGAPT= 1.00D-06 (Minimum eigenvalue gap in domain redundancy check of triples)
 THRORB=  1.00D-06 (Norm of projected orbitals)
 THRMP2=  1.00D-08 (Neglect of small Fock matrix elements)

 Orbital domain selection criteria:

 CHGFRAC=  0.985   CHGMIN=   0.010   CHGMINH=  0.030   CHGMAX=  0.500   CHGMIN_PAIRS=  0.200    MERGEDOM=0   CANBLK=0

 Weak and distant pair selection criteria:

 RCLOSE= 1.000   RWEAK= 3.000   RDIST= 8.000   RVDIST=15.000   KEEPCLS=0   KEEPCLS_3EXT=0   MP4CLS=0

 Options for approximating pair-single interactions:   JEDOM= 0   RMAX3X= 0.000   SKIPGE=0
 
 Open shell orbital   4.1 in localization group 2

 Pipek-Mezey localisation finished (npass=  2  nrot=      1  Thresh=  0.10D-08  CPU=   0.00 sec)

 Ordering localized MOs according to charge centroids

 Generating projected atomic orbitals
 
 Deleting projected core orbital    1.1 (C 1s)    Norm=  0.17D-02

 Ranking of atoms according to Loewdin charges

 Orbital domains

   Orb.   Atom     Charge      Crit.
   2.1    1 C       1.83       0.999
   3.1    1 C       1.13       0.000
          2 H       0.87       1.000
   4.1    1 C       1.90       1.000

 Number of strong pairs:           6

 Using   7 processors for pair domains. ntask=      6  ngroup=    1  minbatch=    1  maxbatch=    1

 Average pair domain sizes:       36    (strong pairs:  36, close pairs:   0, weak pairs:   0, distant pairs:   0)
 Number of redundant orbitals:     9

 Largest S-eigenvalue of redundant functions:  0.1129D-14   Pair:   4  Symmetry: 1
 Smallest S-eigenvalue of domains              0.2271D-03   Pair:   3  Symmetry: 1

 United MP2 domains:        min=  43  max=  43  average=  43
 United LUCCSD domains:     min=  43  max=  43  average=  43

 Number of correlated orbitals in LUCCSD:   3
 Total United LUCCSD domain size:          43

 CPU-time for pair domains:             0.01 SEC

 Distance criteria for operator lists:     RMAXJ=      8.00  RMAXK=      8.00  RMAXL=     15.00
 Distance criteria for operator domains:   RDOMJ=      0.00  RDOMK=      8.00

 Using operator domains:    iopdom=5   sdom=2  kextyp=0   triptyp=2

 Number of orbital pairs:          6
 Length of K(kl) list:             6
 Number of operators K(kl):        6 (  0.08 MB)   Domain sizes:    min=  43  max=  43  average=  43
 Number of operators J(kl):        6 (  0.08 MB)   Domain sizes:    min=  43  max=  43  average=  43
 Number of y,z intermediates:      9
 Number of operators J/K(E):       9 (  0.20 MB)   Domain sizes:    min=  43  max=  43  average=  43

 Number of orbital triples:        7  Number of 3-external CSFS:         479920

 Triples domains:           min=  30  max=  44  average=  40
 United T domains:          min=  44  max=  44  average=  44
 Triples per orbital:       min=   5  max=   5  average=   5
 
 File size for 4-external integrals using center quadruplets:   11.912 MB

 Number of N-1 electron functions:               5
 Number of N-2 electron functions:              10
 Number of singly external CSFs:               175
 Number of doubly external CSFs:             12817
 Total number of CSFs:                       12992

 Number of correlated orbitals:                  3
 Number of strong pair functions:                6
 Total number of pair functions:                 6
 Number of singly external local CSFs:         104
 Number of doubly external local CSFs:        6692 (all pairs)      6692 (strong pairs)         0 (weak pairs)
 Total number of local CSFs:                  6797 (all pairs)      6797 (strong pairs)

 Using 3-external integrals

 File size for 3-external integrals using MO/center triples:     1.498 MB
 Memory available:                       949986624 words
 Memory left for 3ext caching:           949572087 words

 Minimum memory for triples:                304737 words

 Used memory for triples:                  1599828 words
 caching ratio 3-ext integrals:  100.0%
 minimal number of LMOs cached:      3
 estimated number of LMOs cached:    3
 
 AO-basis loaded. Number of functions:                  44

 Fitting-basis CC-PVTZ-MP2FIT loaded for 0-2-external integrals.

 Number of fitting functions:                      111
 CPU time for 2-ext exchange integrals            0.01 sec, Elapsed time=      0.00 sec

 Using incore algorithm in dfasmbl_coul, locfit=0

 CPU time for 2-ext Coulomb integrals             0.00 sec, Elapsed time=      0.01 sec
 CPU time for DF-2ext transformation (total)      0.01 sec, Elapsed time=      0.01 sec
 Local fitting disabled for 3-ext integrals

 Fitting-basis CC-PVTZ-MP2FIT loaded for 3-external integrals.

 Number of fitting functions:                      111
 CPU time for DF-3ext transformations             2.71 sec, Elapsed time=      2.71 sec (including assembly of 3ext integrals)

 2-ext integrals generated in 3-ext are re-used
 
 Fitting-basis CC-PVTZ-MP2FIT loaded for 4-external integrals.

 Number of fitting functions:                      111
 Distributing 4-ext file on two disks:              772260              789110             1561370
 CPU time for DF-4ext transformations             0.02 sec, Elapsed time=      0.02 sec

 Reference energy:                    -38.27686223

 ITER.     SQ.NORM      CORR.ENERGY   TOTAL ENERGY   ENERGY CHANGE        DEN1      VAR(S)    VAR(P)  DIIS     TIME
   1      1.03701838    -0.10455438   -38.38141661    -0.10455438    -0.00118657  0.11D-04  0.60D-03  1  1     2.80
   2      1.03817433    -0.10572149   -38.38258373    -0.00116712    -0.00004557  0.54D-06  0.27D-04  2  2     2.80
   3      1.03816805    -0.10569797   -38.38256020     0.00002352    -0.00000225  0.37D-07  0.14D-05  3  3     2.80
   4      1.03818957    -0.10571360   -38.38257583    -0.00001563    -0.00000007  0.13D-08  0.45D-07  4  4     2.80
   5      1.03819325    -0.10571539   -38.38257762    -0.00000179    -0.00000000  0.20D-09  0.14D-08  5  5     2.81
   6      1.03819330    -0.10571537   -38.38257760     0.00000002    -0.00000000  0.17D-11  0.11D-10  6  6     2.81
   7      1.03819331    -0.10571535   -38.38257759     0.00000002    -0.00000000  0.20D-12  0.17D-11  6  1     2.81
   8      1.03819332    -0.10571536   -38.38257760    -0.00000001    -0.00000000  0.16D-14  0.90D-14  6  2     2.81
   9      1.03819331    -0.10571536   -38.38257759     0.00000000    -0.00000000  0.50D-16  0.15D-14  6  3     2.81
  10      1.03819332    -0.10571536   -38.38257759    -0.00000000    -0.00000000  0.55D-17  0.31D-16  6  4     2.81
  11      1.03819331    -0.10571536   -38.38257759     0.00000000    -0.00000000  0.41D-18  0.31D-17  6  5     2.82

 Spin contamination <S**2-Sz**2-Sz>     0.00599074

 Norm of t1 vector:      0.04077001      S-energy:    -0.00283097      T1 diagnostic:  0.00038768
 Norm of t2 vector:      0.19113116      P-energy:    -0.10288439
                                         Alpha-Beta:  -0.08799908
                                         Alpha-Alpha: -0.01186542
                                         Beta-Beta:   -0.00301989


 Reference energy                     -38.276862234341
 Correlation energy                    -0.105715358416
 !RHF-LRMP2 STATE 1.1 Energy          -38.382577592757

 Starting LUCCSD calculation

 Reference energy:                    -38.27686223

 ITER.     SQ.NORM      CORR.ENERGY   TOTAL ENERGY   ENERGY CHANGE        DEN1      VAR(S)    VAR(P)  DIIS     TIME
   1      1.05357550    -0.12079042   -38.39765266    -0.12079042    -0.00453028  0.22D-03  0.17D-02  1  1     2.86
   2      1.06135437    -0.12592883   -38.40279106    -0.00513841    -0.00088763  0.33D-04  0.40D-03  2  2     2.90
   3      1.06831841    -0.12914781   -38.40601004    -0.00321898    -0.00026396  0.10D-04  0.13D-03  3  3     2.94
   4      1.07061499    -0.12958573   -38.40644796    -0.00043792    -0.00004914  0.17D-05  0.27D-04  4  4     2.99
   5      1.07195825    -0.12981605   -38.40667828    -0.00023032    -0.00001419  0.25D-06  0.82D-05  5  5     3.03
   6      1.07248468    -0.12989647   -38.40675870    -0.00008042    -0.00000386  0.23D-07  0.23D-05  6  6     3.07
   7      1.07285836    -0.12993828   -38.40680051    -0.00004181    -0.00000085  0.61D-08  0.50D-06  6  1     3.11
   8      1.07295723    -0.12995459   -38.40681682    -0.00001631    -0.00000007  0.30D-08  0.37D-07  6  4     3.16
   9      1.07299880    -0.12996024   -38.40682248    -0.00000566    -0.00000001  0.47D-09  0.32D-08  6  2     3.20
  10      1.07300060    -0.12996082   -38.40682306    -0.00000058    -0.00000000  0.68D-10  0.19D-09  6  3     3.24
  11      1.07300511    -0.12996198   -38.40682422    -0.00000116    -0.00000000  0.61D-11  0.58D-10  6  1     3.29
  12      1.07300624    -0.12996230   -38.40682454    -0.00000032    -0.00000000  0.31D-12  0.61D-11  6  5     3.33
  13      1.07300584    -0.12996220   -38.40682443     0.00000011    -0.00000000  0.28D-12  0.16D-11  6  6     3.38
  14      1.07300568    -0.12996213   -38.40682437     0.00000006    -0.00000000  0.83D-13  0.50D-12  6  4     3.42
  15      1.07300576    -0.12996212   -38.40682436     0.00000001    -0.00000000  0.14D-13  0.14D-12  6  2     3.45
  16      1.07300579    -0.12996213   -38.40682436    -0.00000000    -0.00000000  0.71D-15  0.25D-14  6  3     3.50
  17      1.07300580    -0.12996213   -38.40682436    -0.00000000    -0.00000000  0.22D-15  0.27D-15  6  1     3.54
  18      1.07300580    -0.12996213   -38.40682436    -0.00000000    -0.00000000  0.35D-16  0.31D-16  6  5     3.58
  19      1.07300580    -0.12996213   -38.40682436    -0.00000000    -0.00000000  0.65D-17  0.12D-16  6  6     3.63
  20      1.07300580    -0.12996213   -38.40682436     0.00000000    -0.00000000  0.69D-18  0.39D-17  6  4     3.67
  21      1.07300580    -0.12996213   -38.40682436     0.00000000    -0.00000000  0.63D-19  0.11D-17  6  2     3.71
  22      1.07300580    -0.12996213   -38.40682436     0.00000000    -0.00000000  0.15D-19  0.30D-18  6  3     3.76

 Spin contamination <S**2-Sz**2-Sz>     0.00111505

 Norm of t1 vector:      0.05356520      S-energy:    -0.00316155      T1 diagnostic:  0.01189924
 Norm of t2 vector:      0.26483309      P-energy:    -0.12680058
                                         Alpha-Beta:  -0.11132387
                                         Alpha-Alpha: -0.01252550
                                         Beta-Beta:   -0.00295120

 ENTERING LOCAL TRIPLES SECTION
 computing T2S/ST2S on-the-fly
 Memory available:                       949627781 words
 Memory left for 3ext caching:           949399983 words

 Minimum memory for triples:                117998 words

 Used memory for triples:                  1413089 words
 caching ratio 3-ext integrals:  100.0%
 minimal number of LMOs cached:      3
 estimated number of LMOs cached:    3

 Parallel execution using 7 processors
 Number of tasks=7, Minbatch=1, Maxbatch=1, Batches per procesor=1, Shared_W=T, Shared_T=T, Dynamic=F

 PERCENTAGE OF AMPLITUDE     SINGLE CONTRIBUTION   DOUBLE CONTRIBUTION     CPUTIME(TRIPLE)
      10% finished                0.00000889           -0.00080374              0.02

 percentage hits 3ext-integral memory caching: 63.3 % (blocks), 63.3 % (words)
 percentage disk reads 3ext-integrals        : 36.7 % (words), overall:      5.491 MB

 (1) Triples without internal-internal couplings:

 CPU time for local triples(1):  User=0.29 sec, Sys=0.01 sec, Total=0.30 sec, Elapsed=0.04 sec

 Memory used:         1674494 words
 etrip=


  RESULTS
  =======
 
  Reference energy                    -38.276862234341
 
  LUCCSD correlation energy            -0.129962129914
 !LUCCSD total energy                 -38.406824364256

  LUCCSD[T0] correlation energy        -0.133304848468   triples contribution= -0.003342718553
  LUCCSD[T0] total energy             -38.410167082809

  LUCCSD(T0) correlation energy        -0.133298795034   triples contribution= -0.003336665120
 !LUCCSD(T0) total energy             -38.410161029375

 Program statistics:

 Available memory:                       949999900
 Available memory in lrmp2:              949986276
 Max. memory used in lrmp2:                  86922
 Min. memory needed in lrmp2:                72636
 Available memory in luccsd:             949975968
 Max. memory used in luccsd:                178526
 Min. memory needed in luccsd:              164240



 **********************************************************************************************************************************
 DATASETS  * FILE   NREC   LENGTH (MB)   RECORD NAMES
              1      18       19.15       500      610      700      900      950      970     1001      129      960     1100   
                                          VAR    BASINP    GEOM    SYMINP    ZMAT    AOBASIS   BASIS     P2S    ABASIS      S 
                                         1400     1410     1200     1210     1080     1600     1650     1700   
                                           T        V       H0       H01     AOSYM     SMH    MOLCAS    OPER   

              2       6        0.58       700     1000      520     2100     1001     2101   
                                         GEOM     BASIS   MCVARS     RHF     BASIS     RHF  

 PROGRAMS   *        TOTAL LUCCSD(T)       RHF       INT LUCCSD(T)       RHF       INT
 CPU TIMES  *         7.01      3.82      0.10      0.19      2.34      0.09      0.21
 REAL TIME  *         9.23 SEC
 DISK USED  *       149.48 MB      
 SF USED    *        36.85 MB      
 GA USED    *         3.27 MB       (max)       0.00 MB       (current)
 **********************************************************************************************************************************
 SETTING ETZ            =       -38.41016103  AU                              
 SETTING BASIS          =    CC-PVQZ


 Recomputing integrals since basis changed


 Using spherical harmonics

 Library entry C      S cc-pVQZ              selected for orbital group  1
 Library entry C      P cc-pVQZ              selected for orbital group  1
 Library entry C      D cc-pVQZ              selected for orbital group  1
 Library entry C      F cc-pVQZ              selected for orbital group  1
 Library entry C      G cc-pVQZ              selected for orbital group  1
 Library entry H      S cc-pVQZ              selected for orbital group  2
 Library entry H      P cc-pVQZ              selected for orbital group  2
 Library entry H      D cc-pVQZ              selected for orbital group  2
 Library entry H      F cc-pVQZ              selected for orbital group  2

1PROGRAM * SEWARD (Integral evaluation for generally contracted gaussian basis sets)     Author: Roland Lindh, 1990

 Geometry written to block  1 of record 700


 Point group  C1  



 ATOMIC COORDINATES

 NR  ATOM    CHARGE       X              Y              Z

   1  C       6.00    0.000000000    0.000000000   -0.164218978
   2  H       1.00    0.000000000    0.000000000    1.956896386

 Bond lengths in Bohr (Angstrom)

 1-2  2.121115364
     ( 1.122445912)

 NUCLEAR CHARGE:                    7
 NUMBER OF PRIMITIVE AOS:         120
 NUMBER OF SYMMETRY AOS:          100
 NUMBER OF CONTRACTIONS:           85   (  85A   )
 NUMBER OF CORE ORBITALS:           1   (   1A   )
 NUMBER OF VALENCE ORBITALS:        5   (   5A   )


 NUCLEAR REPULSION ENERGY    2.82870046

 EXTRA SYMMETRY OF AOS IN SYMMETRY 1:   1 1 1 1 1 2 3 1 2 3   1 2 3 1 2 3 1 1 4 2   5 3 1 4 2 5 3 1 4 2   5 3 2 3 1 6 4 7 5 2
                                        3 1 6 4 7 5 1 4 2 8   3 5 9 6 7 1 1 1 1 2   3 1 2 3 1 2 3 1 1 4   2 5 3 1 4 2 5 3 2 3
                                        1 6 4 7 5

 Eigenvalues of metric

         1 0.290E-03 0.559E-03 0.209E-02 0.600E-02 0.749E-02 0.749E-02 0.878E-02 0.153E-01


 OPERATOR DM      FOR CENTER  0  COORDINATES:    0.000000    0.000000    0.000000


 **********************************************************************************************************************************
 DATASETS  * FILE   NREC   LENGTH (MB)   RECORD NAMES
              1      18       19.36       500      610      700      900      950      970     1002      129      960     1100   
                                          VAR    BASINP    GEOM    SYMINP    ZMAT    AOBASIS   BASIS     P2S    ABASIS      S 
                                         1400     1410     1200     1210     1080     1600     1650     1700   
                                           T        V       H0       H01     AOSYM     SMH    MOLCAS    OPER   

              2       7        0.61       700     1000      520     2100     1001     2101     1002   
                                         GEOM     BASIS   MCVARS     RHF     BASIS     RHF     BASIS   

 PROGRAMS   *        TOTAL       INT LUCCSD(T)       RHF       INT LUCCSD(T)       RHF       INT
 CPU TIMES  *         7.23      0.22      3.82      0.10      0.19      2.34      0.09      0.21
 REAL TIME  *         9.51 SEC
 DISK USED  *       149.48 MB      
 SF USED    *        36.85 MB      
 GA USED    *         3.27 MB       (max)       0.00 MB       (current)
 **********************************************************************************************************************************

1PROGRAM * RHF-SCF (OPEN SHELL)       Authors: W. Meyer, H.-J. Werner


 NUMBER OF ELECTRONS:       4+    3-    SPACE SYMMETRY=1    SPIN SYMMETRY: Doublet 
 CONVERGENCE THRESHOLDS:    1.00E-10 (Density)    1.00E-11 (Energy)
 INTEGRAL THRESHOLDS:       1.00E-12 (Initial)    1.00E-12 (Final)
 MAX. NUMBER OF ITERATIONS:      300
 INTERPOLATION TYPE:            DIIS
 INTERPOLATION STEPS:              2 (START)      1 (STEP)
 LEVEL SHIFTS:                 -0.60 (CLOSED) -0.30 (OPEN) 



 
 Basis set CC-PVQZ/JKFIT generated.      Number of basis functions:   157 
 
 Molecular orbitals read from record     2101.2  Type=RHF/CANONICAL (state 1.1)
 
 Present basis size:      85
 Previous basis size:     44
 Previous occupation:      4
 Previous closed-shells:   3
 Previous core-orbitals:   1
 Present occupation:       4
 Present closed-shells:    3
 Present core-orbitals:    1
 Wavefunction symmetry:    1   Doublet 

 Orbital overlap <old|new>:  < 1.1| 1.1> = 0.999999   < 2.1| 2.1> = 0.999991   < 3.1| 3.1> = 0.999961   < 4.1| 4.1> = 0.999934
 Coulomb and exchange fitting
 Thresholds for fitting:       THRAO_COUL= 1.0D-15    THRAO_EXCH= 1.0D-13    THRMO= 1.0D-12    THRPROD= 1.0D-12    THRASM= 1.0D-12
                               THR2HLF=    1.0D-12

 Molecular orbital dump at record        2102.2

 ITERATION   DDIFF            GRAD            ENERGY        2-EL.EN.            DIPOLE MOMENTS         DIIS   CPU(IT)  CPU(TOT)  ORB.
    1      0.000D+00      0.000D+00       -38.27876103     31.001191   -0.00000   -0.00000    0.62589    0      0.0      0.0     start
    2      0.000D+00      0.180D-02       -38.27911017     30.997893   -0.00000    0.00000    0.62089    1      0.0      0.0     diag,B
    3      0.310D-02      0.284D-03       -38.27914000     30.993783   -0.00000    0.00000    0.61921    2      0.0      0.0     diag,B
    4      0.105D-02      0.807D-04       -38.27914499     30.990888   -0.00000   -0.00000    0.61932    3      0.0      0.1     diag,B
    5      0.438D-03      0.247D-04       -38.27914571     30.990186   -0.00000   -0.00000    0.62043    4      0.0      0.1     diag,B
    6      0.561D-04      0.103D-04       -38.27914587     30.990179   -0.00000   -0.00000    0.62155    5      0.0      0.1     diag,B
    7      0.278D-04      0.273D-05       -38.27914588     30.990253   -0.00000   -0.00000    0.62187    6      0.0      0.1     diag,B
    8      0.851D-05      0.774D-06       -38.27914588     30.990271   -0.00000   -0.00000    0.62193    7      0.0      0.1     orth
    9      0.314D-05      0.182D-06       -38.27914588     30.990275   -0.00000   -0.00000    0.62194    8      0.0      0.1     diag,B
   10      0.881D-06      0.493D-07       -38.27914588     30.990275   -0.00000    0.00000    0.62194    9      0.0      0.1     diag,B
   11      0.245D-06      0.126D-07       -38.27914588     30.990275   -0.00000    0.00000    0.62194    9      0.0      0.1     diag,B
   12      0.390D-07      0.439D-08       -38.27914588     30.990274   -0.00000   -0.00000    0.62194    9      0.0      0.1     diag,B
   13      0.170D-07      0.132D-08       -38.27914588     30.990274    0.00000    0.00000    0.62194    9      0.0      0.1     diag,B
   14      0.858D-08      0.254D-09       -38.27914588     30.990274    0.00000    0.00000    0.62194    9      0.0      0.2     diag,B
   15      0.825D-09      0.644D-10       -38.27914588     30.990274    0.00000    0.00000    0.62194    9      0.0      0.2     diag,B
   16      0.161D-09      0.198D-10       -38.27914588     30.990274    0.00000    0.00000    0.62194    9      0.0      0.2     diag,B
   17      0.525D-10      0.763D-11       -38.27914588     30.990274    0.00000    0.00000    0.62194    0      0.0      0.2     orth

 Final alpha occupancy:   4
 Final beta  occupancy:   3

 !RHF STATE 1.1 Energy                -38.279145877095
 Nuclear energy                         2.82870046
 One-electron energy                  -56.60298357
 Two-electron energy                   15.49513724
 Virial quotient                       -1.00054953
 !RHF STATE 1.1 Dipole moment           0.00000000     0.00000000     0.62193555
 Dipole moment /Debye                   0.00000000     0.00000000     1.58069896

 Orbital energies:

         1.1          2.1          3.1          4.1          5.1          6.1
    -11.315153    -0.829028    -0.454772    -0.414803     0.031275     0.135933

 HOMO      4.1    -0.414803 =     -11.2874eV
 LUMO      5.1     0.031275 =       0.8510eV
 LUMO-HOMO         0.446078 =      12.1384eV


 **********************************************************************************************************************************
 DATASETS  * FILE   NREC   LENGTH (MB)   RECORD NAMES
              1      18       19.36       500      610      700      900      950      970     1002      129      960     1100   
                                          VAR    BASINP    GEOM    SYMINP    ZMAT    AOBASIS   BASIS     P2S    ABASIS      S 
                                         1400     1410     1200     1210     1080     1600     1650     1700   
                                           T        V       H0       H01     AOSYM     SMH    MOLCAS    OPER   

              2       8        0.95       700     1000      520     2100     1001     2101     1002     2102   
                                         GEOM     BASIS   MCVARS     RHF     BASIS     RHF     BASIS     RHF  

 PROGRAMS   *        TOTAL       RHF       INT LUCCSD(T)       RHF       INT LUCCSD(T)       RHF       INT
 CPU TIMES  *         7.42      0.19      0.22      3.82      0.10      0.19      2.34      0.09      0.21
 REAL TIME  *         9.71 SEC
 DISK USED  *       149.95 MB      
 SF USED    *        36.85 MB      
 GA USED    *         3.27 MB       (max)       0.00 MB       (current)
 **********************************************************************************************************************************


 Input parameters for LOCAL:

 LOCAL  =    5.000000
 THRLOC =   -1.000000
 MAXIT  =  150.000000

1PROGRAM * CCSD (Unrestricted open-shell coupled cluster)     Authors: C. Hampel, H.-J. Werner, 1991, M. Deegan, P.J. Knowles, 1992

                    Density fitting coupled cluster methods (ITF), W. Gyorffy, 2015

                              Local implementation by Y. Liu and H.-J. Werner, 2009


 Setting use_dist= 1
 Basis set CC-PVQZ/MP2FIT generated.     Number of basis functions:   187 

 Convergence thresholds:  THRVAR = 1.00D-08  THRDEN = 1.00D-10

 CCSD(T)     terms to be evaluated (factor= 1.000)


 Number of core orbitals:           1 (   1 )
 Number of closed-shell orbitals:   2 (   2 )
 Number of active  orbitals:        1 (   1 )
 Number of external orbitals:      81 (  81 )

 Options for lccsd:

   local=       4
   itripl=      1
   iopdom=      5
   isdom=       2
   i3ext=       3
   i4ext=       1

 Using operators K(Cij)  

 icfit_3ext= 2  icfit_4ext= 2
 locfit_ccsd=0  locfit_2ext=0  locfit_3ext=0  locfit_4ext=0  locfit=*

 Molecular orbitals read from record     2102.2  Type=RHF/CANONICAL (state 1.1)

 Local correlation treatment
 ===========================

 LOCAL=5  IBASO=0  NONORM=0  IDLCOR=2  KEEPCORE=0  SKIPD=3  LOCSNG=0  LOCMUL=0  CANBLK=0  SHELLPERM=F

 Thresholds:

 THRLOC=  1.00D-06 (Smallest allowed eigenvalue in domain redundancy check)
 THRGAP=  1.00D-06 (Minimum eigenvalue gap in domain redundancy check)
 THRLOCT= 1.00D-06 (Smallest allowed eigenvalue in domain redundancy check of triples)
 THRGAPT= 1.00D-06 (Minimum eigenvalue gap in domain redundancy check of triples)
 THRORB=  1.00D-06 (Norm of projected orbitals)
 THRMP2=  1.00D-08 (Neglect of small Fock matrix elements)

 Orbital domain selection criteria:

 CHGFRAC=  0.990   CHGMIN=   0.010   CHGMINH=  0.030   CHGMAX=  0.500   CHGMIN_PAIRS=  0.200    MERGEDOM=0   CANBLK=0

 Weak and distant pair selection criteria:

 RCLOSE= 1.000   RWEAK= 3.000   RDIST= 8.000   RVDIST=15.000   KEEPCLS=0   KEEPCLS_3EXT=0   MP4CLS=0

 Options for approximating pair-single interactions:   JEDOM= 0   RMAX3X= 0.000   SKIPGE=0
 
 Open shell orbital   4.1 in localization group 2

 Pipek-Mezey localisation finished (npass=  2  nrot=      1  Thresh=  0.10D-08  CPU=   0.00 sec)

 Ordering localized MOs according to charge centroids

 Generating projected atomic orbitals
 
 Deleting projected core orbital    1.1 (C 1s)    Norm=  0.18D-02

 Ranking of atoms according to Loewdin charges

 Orbital domains

   Orb.   Atom     Charge      Crit.
   2.1    1 C       1.82       1.000
   3.1    1 C       1.12       0.000
          2 H       0.88       1.000
   4.1    1 C       1.84       1.000

 Number of strong pairs:           6

 Using   7 processors for pair domains. ntask=      6  ngroup=    1  minbatch=    1  maxbatch=    1

 Average pair domain sizes:       69    (strong pairs:  69, close pairs:   0, weak pairs:   0, distant pairs:   0)
 Number of redundant orbitals:     9

 Largest S-eigenvalue of redundant functions:  0.0000D+00   Pair:   0  Symmetry: 0
 Smallest S-eigenvalue of domains              0.1158D-03   Pair:   1  Symmetry: 1

 United MP2 domains:        min=  84  max=  84  average=  84
 United LUCCSD domains:     min=  84  max=  84  average=  84

 Number of correlated orbitals in LUCCSD:   3
 Total United LUCCSD domain size:          84

 CPU-time for pair domains:             0.01 SEC

 Distance criteria for operator lists:     RMAXJ=      8.00  RMAXK=      8.00  RMAXL=     15.00
 Distance criteria for operator domains:   RDOMJ=      0.00  RDOMK=      8.00

 Using operator domains:    iopdom=5   sdom=2  kextyp=0   triptyp=2

 Number of orbital pairs:          6
 Length of K(kl) list:             6
 Number of operators K(kl):        6 (  0.32 MB)   Domain sizes:    min=  84  max=  84  average=  84
 Number of operators J(kl):        6 (  0.32 MB)   Domain sizes:    min=  84  max=  84  average=  84
 Number of y,z intermediates:      9
 Number of operators J/K(E):       9 (  0.75 MB)   Domain sizes:    min=  84  max=  84  average=  84

 Number of orbital triples:        7  Number of 3-external CSFS:        3403375

 Triples domains:           min=  55  max=  85  average=  76
 United T domains:          min=  85  max=  85  average=  85
 Triples per orbital:       min=   5  max=   5  average=   5
 
 File size for 4-external integrals using center quadruplets:  161.830 MB

 Number of N-1 electron functions:               5
 Number of N-2 electron functions:              10
 Number of singly external CSFs:               332
 Number of doubly external CSFs:             47145
 Total number of CSFs:                       47477

 Number of correlated orbitals:                  3
 Number of strong pair functions:                6
 Total number of pair functions:                 6
 Number of singly external local CSFs:         195
 Number of doubly external local CSFs:       24210 (all pairs)     24210 (strong pairs)         0 (weak pairs)
 Total number of local CSFs:                 24406 (all pairs)     24406 (strong pairs)

 Using 3-external integrals

 File size for 3-external integrals using MO/center triples:    10.741 MB
 Memory available:                       949958946 words
 Memory left for 3ext caching:           947869955 words

 Minimum memory for triples:               2085874 words

 Used memory for triples:                 10433940 words
 caching ratio 3-ext integrals:  100.0%
 minimal number of LMOs cached:      3
 estimated number of LMOs cached:    3
 
 AO-basis loaded. Number of functions:                  85

 Fitting-basis CC-PVQZ-MP2FIT loaded for 0-2-external integrals.

 Number of fitting functions:                      187
 CPU time for 2-ext exchange integrals            0.01 sec, Elapsed time=      0.01 sec

 Using incore algorithm in dfasmbl_coul, locfit=0

 CPU time for 2-ext Coulomb integrals             0.02 sec, Elapsed time=      0.02 sec
 CPU time for DF-2ext transformation (total)      0.03 sec, Elapsed time=      0.03 sec
 Local fitting disabled for 3-ext integrals

 Fitting-basis CC-PVQZ-MP2FIT loaded for 3-external integrals.

 Number of fitting functions:                      187
 CPU time for DF-3ext transformations             2.86 sec, Elapsed time=      2.91 sec (including assembly of 3ext integrals)

 2-ext integrals generated in 3-ext are re-used
 
 Fitting-basis CC-PVQZ-MP2FIT loaded for 4-external integrals.

 Number of fitting functions:                      187
 Distributing 4-ext file on two disks:             8970637            12240720            21211357
 CPU time for DF-4ext transformations             0.21 sec, Elapsed time=      0.22 sec

 Reference energy:                    -38.27914588

 ITER.     SQ.NORM      CORR.ENERGY   TOTAL ENERGY   ENERGY CHANGE        DEN1      VAR(S)    VAR(P)  DIIS     TIME
   1      1.03834200    -0.11223600   -38.39138188    -0.11223600    -0.00119962  0.13D-04  0.61D-03  1  1     3.16
   2      1.03969634    -0.11357958   -38.39272546    -0.00134358    -0.00004641  0.77D-06  0.28D-04  2  2     3.17
   3      1.03952554    -0.11339435   -38.39254023     0.00018523    -0.00000523  0.27D-07  0.35D-05  3  3     3.18
   4      1.03955027    -0.11341170   -38.39255758    -0.00001735    -0.00000006  0.30D-08  0.43D-07  4  4     3.19
   5      1.03955264    -0.11341262   -38.39255850    -0.00000092    -0.00000000  0.33D-09  0.18D-08  5  5     3.19
   6      1.03955277    -0.11341264   -38.39255852    -0.00000002    -0.00000000  0.52D-11  0.14D-10  6  6     3.20
   7      1.03955278    -0.11341263   -38.39255851     0.00000002    -0.00000000  0.41D-12  0.22D-11  6  1     3.21
   8      1.03955278    -0.11341264   -38.39255851    -0.00000001    -0.00000000  0.15D-14  0.13D-13  6  2     3.22
   9      1.03955278    -0.11341264   -38.39255852    -0.00000000    -0.00000000  0.70D-16  0.35D-15  6  3     3.23
  10      1.03955278    -0.11341264   -38.39255852    -0.00000000    -0.00000000  0.40D-17  0.21D-16  6  5     3.24
  11      1.03955278    -0.11341264   -38.39255852     0.00000000    -0.00000000  0.27D-18  0.82D-18  6  4     3.24

 Spin contamination <S**2-Sz**2-Sz>     0.00657160

 Norm of t1 vector:      0.04163265      S-energy:    -0.00287065      T1 diagnostic:  0.00096665
 Norm of t2 vector:      0.19447238      P-energy:    -0.11054199
                                         Alpha-Beta:  -0.09485632
                                         Alpha-Alpha: -0.01252237
                                         Beta-Beta:   -0.00316330


 Reference energy                     -38.279145877095
 Correlation energy                    -0.113412638503
 !RHF-LRMP2 STATE 1.1 Energy          -38.392558515598

 Starting LUCCSD calculation

 Reference energy:                    -38.27914588

 ITER.     SQ.NORM      CORR.ENERGY   TOTAL ENERGY   ENERGY CHANGE        DEN1      VAR(S)    VAR(P)  DIIS     TIME
   1      1.05410264    -0.12682705   -38.40597293    -0.12682705    -0.00442144  0.25D-03  0.16D-02  1  1     3.64
   2      1.06128425    -0.13150230   -38.41064817    -0.00467525    -0.00087274  0.33D-04  0.40D-03  2  2     4.04
   3      1.06787751    -0.13462236   -38.41376824    -0.00312007    -0.00028440  0.11D-04  0.14D-03  3  3     4.45
   4      1.07075357    -0.13538032   -38.41452620    -0.00075795    -0.00006026  0.21D-05  0.33D-04  4  4     4.85
   5      1.07213920    -0.13561857   -38.41476445    -0.00023825    -0.00001680  0.38D-06  0.97D-05  5  5     5.24
   6      1.07270760    -0.13566544   -38.41481132    -0.00004686    -0.00000516  0.56D-07  0.30D-05  6  6     5.70
   7      1.07314622    -0.13573800   -38.41488387    -0.00007256    -0.00000110  0.58D-08  0.65D-06  6  1     6.16
   8      1.07324079    -0.13574713   -38.41489300    -0.00000913    -0.00000010  0.32D-08  0.54D-07  6  4     6.61
   9      1.07330306    -0.13575663   -38.41490251    -0.00000950    -0.00000002  0.87D-09  0.89D-08  6  2     7.09
  10      1.07330817    -0.13575708   -38.41490296    -0.00000045    -0.00000000  0.18D-09  0.36D-09  6  3     7.55
  11      1.07330975    -0.13575750   -38.41490337    -0.00000042    -0.00000000  0.18D-10  0.55D-10  6  5     7.98
  12      1.07331033    -0.13575767   -38.41490354    -0.00000017    -0.00000000  0.29D-11  0.16D-10  6  6     8.39
  13      1.07331144    -0.13575790   -38.41490378    -0.00000023    -0.00000000  0.52D-12  0.41D-11  6  1     8.85
  14      1.07331192    -0.13575797   -38.41490385    -0.00000007    -0.00000000  0.12D-12  0.75D-12  6  4     9.25
  15      1.07331202    -0.13575797   -38.41490384     0.00000000    -0.00000000  0.27D-13  0.11D-12  6  2     9.70
  16      1.07331201    -0.13575795   -38.41490383     0.00000001    -0.00000000  0.52D-14  0.14D-13  6  3    10.15
  17      1.07331200    -0.13575795   -38.41490383     0.00000000    -0.00000000  0.54D-15  0.13D-14  6  5    10.62
  18      1.07331199    -0.13575795   -38.41490383    -0.00000000    -0.00000000  0.10D-15  0.15D-15  6  6    11.01
  19      1.07331199    -0.13575795   -38.41490383    -0.00000000    -0.00000000  0.14D-16  0.21D-16  6  1    11.41
  20      1.07331200    -0.13575795   -38.41490383    -0.00000000    -0.00000000  0.40D-17  0.80D-17  6  4    11.86
  21      1.07331200    -0.13575795   -38.41490383    -0.00000000    -0.00000000  0.75D-18  0.21D-17  6  2    12.32
  22      1.07331200    -0.13575795   -38.41490383    -0.00000000    -0.00000000  0.12D-19  0.29D-18  6  5    12.73

 Spin contamination <S**2-Sz**2-Sz>     0.00136988

 Norm of t1 vector:      0.05469526      S-energy:    -0.00318025      T1 diagnostic:  0.01291361
 Norm of t2 vector:      0.26517999      P-energy:    -0.13257771
                                         Alpha-Beta:  -0.11635967
                                         Alpha-Alpha: -0.01314257
                                         Beta-Beta:   -0.00307546

 ENTERING LOCAL TRIPLES SECTION
 computing T2S/ST2S on-the-fly
 Memory available:                       948057625 words
 Memory left for 3ext caching:           947252981 words

 Minimum memory for triples:                801527 words

 Used memory for triples:                  9149593 words
 caching ratio 3-ext integrals:  100.0%
 minimal number of LMOs cached:      3
 estimated number of LMOs cached:    3

 Parallel execution using 7 processors
 Number of tasks=7, Minbatch=1, Maxbatch=1, Batches per procesor=1, Shared_W=T, Shared_T=T, Dynamic=F

 PERCENTAGE OF AMPLITUDE     SINGLE CONTRIBUTION   DOUBLE CONTRIBUTION     CPUTIME(TRIPLE)

 percentage hits 3ext-integral memory caching: 63.3 % (blocks), 63.3 % (words)
 percentage disk reads 3ext-integrals        : 36.7 % (words), overall:     39.384 MB

 (1) Triples without internal-internal couplings:

 CPU time for local triples(1):  User=2.78 sec, Sys=0.01 sec, Total=2.79 sec, Elapsed=0.40 sec

 Memory used:        10058639 words
 etrip=


  RESULTS
  =======
 
  Reference energy                    -38.279145877095
 
  LUCCSD correlation energy            -0.135757952632
 !LUCCSD total energy                 -38.414903829726

  LUCCSD[T0] correlation energy        -0.139531630819   triples contribution= -0.003773678187
  LUCCSD[T0] total energy             -38.418677507914

  LUCCSD(T0) correlation energy        -0.139520182393   triples contribution= -0.003762229762
 !LUCCSD(T0) total energy             -38.418666059488

 Program statistics:

 Available memory:                       949999900
 Available memory in lrmp2:              949958526
 Max. memory used in lrmp2:                 314510
 Min. memory needed in lrmp2:               262061
 Available memory in luccsd:             949922812
 Max. memory used in luccsd:                635586
 Min. memory needed in luccsd:              583137



 **********************************************************************************************************************************
 DATASETS  * FILE   NREC   LENGTH (MB)   RECORD NAMES
              1      18       19.36       500      610      700      900      950      970     1002      129      960     1100   
                                          VAR    BASINP    GEOM    SYMINP    ZMAT    AOBASIS   BASIS     P2S    ABASIS      S 
                                         1400     1410     1200     1210     1080     1600     1650     1700   
                                           T        V       H0       H01     AOSYM     SMH    MOLCAS    OPER   

              2       8        0.95       700     1000      520     2100     1001     2101     1002     2102   
                                         GEOM     BASIS   MCVARS     RHF     BASIS     RHF     BASIS     RHF  

 PROGRAMS   *        TOTAL LUCCSD(T)       RHF       INT LUCCSD(T)       RHF       INT LUCCSD(T)       RHF       INT
 CPU TIMES  *        20.59     13.15      0.19      0.22      3.82      0.10      0.19      2.34      0.09      0.21
 REAL TIME  *        23.50 SEC
 DISK USED  *       182.93 MB      
 SF USED    *       304.88 MB      
 GA USED    *         3.27 MB       (max)       0.00 MB       (current)
 **********************************************************************************************************************************
 SETTING EQZ            =       -38.41866606  AU                              
 SETTING BASIS          =    CC-PV5Z


 Recomputing integrals since basis changed


 Using spherical harmonics

 Library entry C      S cc-pV5Z              selected for orbital group  1
 Library entry C      P cc-pV5Z              selected for orbital group  1
 Library entry C      D cc-pV5Z              selected for orbital group  1
 Library entry C      F cc-pV5Z              selected for orbital group  1
 Library entry C      G cc-pV5Z              selected for orbital group  1
 Library entry C      H cc-pV5Z              selected for orbital group  1
 Library entry H      S cc-pV5Z              selected for orbital group  2
 Library entry H      P cc-pV5Z              selected for orbital group  2
 Library entry H      D cc-pV5Z              selected for orbital group  2
 Library entry H      F cc-pV5Z              selected for orbital group  2
 Library entry H      G cc-pV5Z              selected for orbital group  2

1PROGRAM * SEWARD (Integral evaluation for generally contracted gaussian basis sets)     Author: Roland Lindh, 1990

 Geometry written to block  1 of record 700


 Point group  C1  



 ATOMIC COORDINATES

 NR  ATOM    CHARGE       X              Y              Z

   1  C       6.00    0.000000000    0.000000000   -0.164218978
   2  H       1.00    0.000000000    0.000000000    1.956896386

 Bond lengths in Bohr (Angstrom)

 1-2  2.121115364
     ( 1.122445912)

 NUCLEAR CHARGE:                    7
 NUMBER OF PRIMITIVE AOS:         216
 NUMBER OF SYMMETRY AOS:          166
 NUMBER OF CONTRACTIONS:          146   ( 146A   )
 NUMBER OF CORE ORBITALS:           1   (   1A   )
 NUMBER OF VALENCE ORBITALS:        5   (   5A   )


 NUCLEAR REPULSION ENERGY    2.82870046

 EXTRA SYMMETRY OF AOS IN SYMMETRY 1:   1 1 1 1 1 1 2 3 1 2   3 1 2 3 1 2 3 1 2 3   1 1 4 2 5 3 1 4 2 5   3 1 4 2 5 3 1 4 2 5
                                        3 2 3 1 6 4 7 5 2 3   1 6 4 7 5 2 3 1 6 4   7 5 1 4 2 8 3 5 9 6   7 1 4 2 8 3 5 9 6 7
                                        2 3 5 6 9 7 810 111   4 1 1 1 1 1 2 3 1 2   3 1 2 3 1 2 3 1 1 4   2 5 3 1 4 2 5 3 1 4
                                        2 5 3 2 3 1 6 4 7 5   2 3 1 6 4 7 5 1 4 2   8 3 5 9 6 7

 Eigenvalues of metric

         1 0.464E-04 0.212E-03 0.469E-03 0.879E-03 0.142E-02 0.142E-02 0.168E-02 0.429E-02


 OPERATOR DM      FOR CENTER  0  COORDINATES:    0.000000    0.000000    0.000000


 **********************************************************************************************************************************
 DATASETS  * FILE   NREC   LENGTH (MB)   RECORD NAMES
              1      18       19.90       500      610      700      900      950      970     1003      129      960     1100   
                                          VAR    BASINP    GEOM    SYMINP    ZMAT    AOBASIS   BASIS     P2S    ABASIS      S 
                                         1400     1410     1200     1210     1080     1600     1650     1700   
                                           T        V       H0       H01     AOSYM     SMH    MOLCAS    OPER   

              2       9        1.04       700     1000      520     2100     1001     2101     1002     2102     1003   
                                         GEOM     BASIS   MCVARS     RHF     BASIS     RHF     BASIS     RHF     BASIS   

 PROGRAMS   *        TOTAL       INT LUCCSD(T)       RHF       INT LUCCSD(T)       RHF       INT LUCCSD(T)       RHF       INT
 CPU TIMES  *        20.82      0.22     13.15      0.19      0.22      3.82      0.10      0.19      2.34      0.09      0.21
 REAL TIME  *        23.82 SEC
 DISK USED  *       182.93 MB      
 SF USED    *       304.88 MB      
 GA USED    *         3.27 MB       (max)       0.00 MB       (current)
 **********************************************************************************************************************************

1PROGRAM * RHF-SCF (OPEN SHELL)       Authors: W. Meyer, H.-J. Werner


 NUMBER OF ELECTRONS:       4+    3-    SPACE SYMMETRY=1    SPIN SYMMETRY: Doublet 
 CONVERGENCE THRESHOLDS:    1.00E-10 (Density)    1.00E-11 (Energy)
 INTEGRAL THRESHOLDS:       1.00E-12 (Initial)    1.00E-12 (Final)
 MAX. NUMBER OF ITERATIONS:      300
 INTERPOLATION TYPE:            DIIS
 INTERPOLATION STEPS:              2 (START)      1 (STEP)
 LEVEL SHIFTS:                 -0.60 (CLOSED) -0.30 (OPEN) 



 
 Basis set CC-PV5Z/JKFIT generated.      Number of basis functions:   229 
 
 Molecular orbitals read from record     2102.2  Type=RHF/CANONICAL (state 1.1)
 
 Present basis size:     146
 Previous basis size:     85
 Previous occupation:      4
 Previous closed-shells:   3
 Previous core-orbitals:   1
 Present occupation:       4
 Present closed-shells:    3
 Present core-orbitals:    1
 Wavefunction symmetry:    1   Doublet 

 Orbital overlap <old|new>:  < 1.1| 1.1> = 1.000000   < 2.1| 2.1> = 0.999998   < 3.1| 3.1> = 0.999991   < 4.1| 4.1> = 0.999976
 Coulomb and exchange fitting
 Thresholds for fitting:       THRAO_COUL= 1.0D-15    THRAO_EXCH= 1.0D-13    THRMO= 1.0D-12    THRPROD= 1.0D-12    THRASM= 1.0D-12
                               THR2HLF=    1.0D-12

 Molecular orbital dump at record        2103.2

 ITERATION   DDIFF            GRAD            ENERGY        2-EL.EN.            DIPOLE MOMENTS         DIIS   CPU(IT)  CPU(TOT)  ORB.
    1      0.000D+00      0.000D+00       -38.27955689     30.990311    0.00000    0.00000    0.62116    0      0.0      0.1     start
    2      0.000D+00      0.962D-03       -38.27969199     30.988985    0.00000   -0.00000    0.61968    1      0.0      0.1     diag,B
    3      0.372D-02      0.137D-03       -38.27970810     30.987217   -0.00000   -0.00000    0.61924    2      0.0      0.1     diag,B
    4      0.159D-02      0.525D-04       -38.27971274     30.985224   -0.00000    0.00000    0.61943    3      0.0      0.1     diag,B
    5      0.102D-02      0.152D-04       -38.27971324     30.984289   -0.00000    0.00000    0.62008    4      0.0      0.2     diag,B
    6      0.186D-03      0.575D-05       -38.27971333     30.984027   -0.00000    0.00000    0.62072    5      0.0      0.2     diag,B
    7      0.193D-04      0.187D-05       -38.27971333     30.984064   -0.00000    0.00000    0.62100    6      0.0      0.2     diag,B
    8      0.416D-05      0.545D-06       -38.27971333     30.984094   -0.00000   -0.00000    0.62107    7      0.0      0.2     orth
    9      0.145D-05      0.153D-06       -38.27971333     30.984098   -0.00000   -0.00000    0.62108    8      0.0      0.3     diag,B
   10      0.420D-06      0.436D-07       -38.27971333     30.984099   -0.00000   -0.00000    0.62108    9      0.0      0.3     diag,B
   11      0.159D-06      0.112D-07       -38.27971333     30.984098    0.00000   -0.00000    0.62108    9      0.0      0.3     diag,B
   12      0.227D-07      0.448D-08       -38.27971333     30.984098    0.00000   -0.00000    0.62108    9      0.0      0.3     diag,B
   13      0.888D-08      0.121D-08       -38.27971333     30.984098    0.00000   -0.00000    0.62108    9      0.0      0.4     diag,B
   14      0.316D-08      0.328D-09       -38.27971333     30.984098    0.00000   -0.00000    0.62108    9      0.0      0.4     diag,B
   15      0.110D-08      0.574D-10       -38.27971333     30.984098    0.00000   -0.00000    0.62108    9      0.0      0.4     diag,B
   16      0.575D-09      0.173D-10       -38.27971333     30.984098    0.00000   -0.00000    0.62108    9      0.0      0.4     diag,B
   17      0.223D-09      0.814D-11       -38.27971333     30.984098    0.00000    0.00000    0.62108    9      0.0      0.5     diag,B
   18      0.973D-10      0.343D-11       -38.27971333     30.984098   -0.00000   -0.00000    0.62108    0      0.0      0.5     orth

 Final alpha occupancy:   4
 Final beta  occupancy:   3

 !RHF STATE 1.1 Energy                -38.279713334374
 Nuclear energy                         2.82870046
 One-electron energy                  -56.60046296
 Two-electron energy                   15.49204917
 Virial quotient                       -1.00059950
 !RHF STATE 1.1 Dipole moment          -0.00000000    -0.00000000     0.62108479
 Dipole moment /Debye                  -0.00000000    -0.00000000     1.57853668

 Orbital energies:

         1.1          2.1          3.1          4.1          5.1          6.1
    -11.315869    -0.829449    -0.455250    -0.415230     0.025160     0.103325

 HOMO      4.1    -0.415230 =     -11.2990eV
 LUMO      5.1     0.025160 =       0.6846eV
 LUMO-HOMO         0.440390 =      11.9836eV


 **********************************************************************************************************************************
 DATASETS  * FILE   NREC   LENGTH (MB)   RECORD NAMES
              1      18       19.90       500      610      700      900      950      970     1003      129      960     1100   
                                          VAR    BASINP    GEOM    SYMINP    ZMAT    AOBASIS   BASIS     P2S    ABASIS      S 
                                         1400     1410     1200     1210     1080     1600     1650     1700   
                                           T        V       H0       H01     AOSYM     SMH    MOLCAS    OPER   

              2      10        1.84       700     1000      520     2100     1001     2101     1002     2102     1003     2103   
                                         GEOM     BASIS   MCVARS     RHF     BASIS     RHF     BASIS     RHF     BASIS     RHF  

 PROGRAMS   *        TOTAL       RHF       INT LUCCSD(T)       RHF       INT LUCCSD(T)       RHF       INT LUCCSD(T)       RHF
 CPU TIMES  *        21.34      0.52      0.22     13.15      0.19      0.22      3.82      0.10      0.19      2.34      0.09
 REAL TIME  *        24.36 SEC
 DISK USED  *       182.93 MB      
 SF USED    *       304.88 MB      
 GA USED    *         3.27 MB       (max)       0.00 MB       (current)
 **********************************************************************************************************************************


 Input parameters for LOCAL:

 LOCAL  =    5.000000
 THRLOC =   -1.000000
 MAXIT  =  150.000000

1PROGRAM * CCSD (Unrestricted open-shell coupled cluster)     Authors: C. Hampel, H.-J. Werner, 1991, M. Deegan, P.J. Knowles, 1992

                    Density fitting coupled cluster methods (ITF), W. Gyorffy, 2015

                              Local implementation by Y. Liu and H.-J. Werner, 2009


 Setting use_dist= 1
 Basis set CC-PV5Z/MP2FIT generated.     Number of basis functions:   284 

 Convergence thresholds:  THRVAR = 1.00D-08  THRDEN = 1.00D-10

 CCSD(T)     terms to be evaluated (factor= 1.000)


 Number of core orbitals:           1 (   1 )
 Number of closed-shell orbitals:   2 (   2 )
 Number of active  orbitals:        1 (   1 )
 Number of external orbitals:     142 ( 142 )

 Options for lccsd:

   local=       4
   itripl=      1
   iopdom=      5
   isdom=       2
   i3ext=       3
   i4ext=       1

 Using operators K(Cij)  

 icfit_3ext= 2  icfit_4ext= 2
 locfit_ccsd=0  locfit_2ext=0  locfit_3ext=0  locfit_4ext=0  locfit=*

 Molecular orbitals read from record     2103.2  Type=RHF/CANONICAL (state 1.1)

 Local correlation treatment
 ===========================

 LOCAL=5  IBASO=0  NONORM=0  IDLCOR=2  KEEPCORE=0  SKIPD=3  LOCSNG=0  LOCMUL=0  CANBLK=0  SHELLPERM=F

 Thresholds:

 THRLOC=  1.00D-06 (Smallest allowed eigenvalue in domain redundancy check)
 THRGAP=  1.00D-06 (Minimum eigenvalue gap in domain redundancy check)
 THRLOCT= 1.00D-06 (Smallest allowed eigenvalue in domain redundancy check of triples)
 THRGAPT= 1.00D-06 (Minimum eigenvalue gap in domain redundancy check of triples)
 THRORB=  1.00D-06 (Norm of projected orbitals)
 THRMP2=  1.00D-08 (Neglect of small Fock matrix elements)

 Orbital domain selection criteria:

 CHGFRAC=  0.990   CHGMIN=   0.010   CHGMINH=  0.030   CHGMAX=  0.500   CHGMIN_PAIRS=  0.200    MERGEDOM=0   CANBLK=0

 Weak and distant pair selection criteria:

 RCLOSE= 1.000   RWEAK= 3.000   RDIST= 8.000   RVDIST=15.000   KEEPCLS=0   KEEPCLS_3EXT=0   MP4CLS=0

 Options for approximating pair-single interactions:   JEDOM= 0   RMAX3X= 0.000   SKIPGE=0
 
 Open shell orbital   4.1 in localization group 2

 Pipek-Mezey localisation finished (npass=  2  nrot=      1  Thresh=  0.10D-08  CPU=   0.00 sec)

 Ordering localized MOs according to charge centroids

 Generating projected atomic orbitals
 
 Deleting projected core orbital    1.1 (C 1s)    Norm=  0.18D-02

 Ranking of atoms according to Loewdin charges

 Orbital domains

   Orb.   Atom     Charge      Crit.
   2.1    1 C       1.76       1.000
   3.1    1 C       1.13       0.000
          2 H       0.87       1.000
   4.1    1 C       1.78       1.000

 Number of strong pairs:           6

 Using   7 processors for pair domains. ntask=      6  ngroup=    1  minbatch=    1  maxbatch=    1

 Average pair domain sizes:      118    (strong pairs: 118, close pairs:   0, weak pairs:   0, distant pairs:   0)
 Number of redundant orbitals:     9

 Largest S-eigenvalue of redundant functions:  0.1740D-14   Pair:   4  Symmetry: 1
 Smallest S-eigenvalue of domains              0.4869D-04   Pair:   4  Symmetry: 1

 United MP2 domains:        min= 145  max= 145  average= 145
 United LUCCSD domains:     min= 145  max= 145  average= 145

 Number of correlated orbitals in LUCCSD:   3
 Total United LUCCSD domain size:         145

 CPU-time for pair domains:             0.01 SEC

 Distance criteria for operator lists:     RMAXJ=      8.00  RMAXK=      8.00  RMAXL=     15.00
 Distance criteria for operator domains:   RDOMJ=      0.00  RDOMK=      8.00

 Using operator domains:    iopdom=5   sdom=2  kextyp=0   triptyp=2

 Number of orbital pairs:          6
 Length of K(kl) list:             6
 Number of operators K(kl):        6 (  0.96 MB)   Domain sizes:    min= 145  max= 145  average= 145
 Number of operators J(kl):        6 (  0.96 MB)   Domain sizes:    min= 145  max= 145  average= 145
 Number of y,z intermediates:      9
 Number of operators J/K(E):       9 (  2.20 MB)   Domain sizes:    min= 145  max= 145  average= 145

 Number of orbital triples:        7  Number of 3-external CSFS:       17067822

 Triples domains:           min=  91  max= 146  average= 130
 United T domains:          min= 146  max= 146  average= 146
 Triples per orbital:       min=   5  max=   5  average=   5
 
 File size for 4-external integrals using center quadruplets:    1.350 GB

 Number of N-1 electron functions:               5
 Number of N-2 electron functions:              10
 Number of singly external CSFs:               562
 Number of doubly external CSFs:            137676
 Total number of CSFs:                      138238

 Number of correlated orbitals:                  3
 Number of strong pair functions:                6
 Total number of pair functions:                 6
 Number of singly external local CSFs:         328
 Number of doubly external local CSFs:       70016 (all pairs)     70016 (strong pairs)         0 (weak pairs)
 Total number of local CSFs:                 70345 (all pairs)     70345 (strong pairs)

 Using 3-external integrals

 File size for 3-external integrals using MO/center triples:    54.205 MB
 Memory available:                       949885542 words
 Memory left for 3ext caching:           939570852 words

 Minimum memory for triples:              10311573 words

 Used memory for triples:                 48951047 words
 caching ratio 3-ext integrals:  100.0%
 minimal number of LMOs cached:      3
 estimated number of LMOs cached:    3
 
 AO-basis loaded. Number of functions:                 146

 Fitting-basis CC-PV5Z-MP2FIT loaded for 0-2-external integrals.

 Number of fitting functions:                      284
 CPU time for 2-ext exchange integrals            0.03 sec, Elapsed time=      0.03 sec

 Using incore algorithm in dfasmbl_coul, locfit=0

 CPU time for 2-ext Coulomb integrals             0.12 sec, Elapsed time=      0.13 sec
 CPU time for DF-2ext transformation (total)      0.15 sec, Elapsed time=      0.16 sec
 Local fitting disabled for 3-ext integrals

 Fitting-basis CC-PV5Z-MP2FIT loaded for 3-external integrals.

 Number of fitting functions:                      284
 CPU time for DF-3ext transformations             3.22 sec, Elapsed time=      3.48 sec (including assembly of 3ext integrals)

 2-ext integrals generated in 3-ext are re-used
 
 Fitting-basis CC-PV5Z-MP2FIT loaded for 4-external integrals.

 Number of fitting functions:                      284
 Distributing 4-ext file on two disks:            67973171           113224375           181197546
 CPU time for DF-4ext transformations             2.43 sec, Elapsed time=      2.48 sec

 Reference energy:                    -38.27971333

 ITER.     SQ.NORM      CORR.ENERGY   TOTAL ENERGY   ENERGY CHANGE        DEN1      VAR(S)    VAR(P)  DIIS     TIME
   1      1.03874005    -0.11529368   -38.39500702    -0.11529368    -0.00121477  0.15D-04  0.62D-03  1  1     5.90
   2      1.04014769    -0.11668498   -38.39639832    -0.00139130    -0.00004738  0.96D-06  0.28D-04  2  2     5.93
   3      1.03995611    -0.11647726   -38.39619059     0.00020773    -0.00000612  0.36D-07  0.40D-05  3  3     5.96
   4      1.03997949    -0.11649153   -38.39620486    -0.00001427    -0.00000005  0.47D-08  0.33D-07  4  4     5.99
   5      1.03997725    -0.11648876   -38.39620210     0.00000276    -0.00000001  0.32D-09  0.50D-08  5  5     6.02
   6      1.03997720    -0.11648861   -38.39620194     0.00000016    -0.00000000  0.14D-10  0.15D-10  6  6     6.05
   7      1.03997721    -0.11648858   -38.39620191     0.00000003    -0.00000000  0.15D-11  0.22D-11  6  1     6.09
   8      1.03997724    -0.11648861   -38.39620194    -0.00000003    -0.00000000  0.29D-13  0.25D-13  6  2     6.12
   9      1.03997724    -0.11648861   -38.39620195    -0.00000000    -0.00000000  0.46D-15  0.63D-15  6  3     6.15
  10      1.03997724    -0.11648861   -38.39620195    -0.00000000    -0.00000000  0.83D-17  0.37D-16  6  4     6.18
  11      1.03997724    -0.11648861   -38.39620195     0.00000000    -0.00000000  0.78D-18  0.19D-17  6  5     6.20

 Spin contamination <S**2-Sz**2-Sz>     0.00677747

 Norm of t1 vector:      0.04183790      S-energy:    -0.00287650      T1 diagnostic:  0.00107307
 Norm of t2 vector:      0.19551684      P-energy:    -0.11361211
                                         Alpha-Beta:  -0.09766759
                                         Alpha-Alpha: -0.01273177
                                         Beta-Beta:   -0.00321275


 Reference energy                     -38.279713334374
 Correlation energy                    -0.116488612042
 !RHF-LRMP2 STATE 1.1 Energy          -38.396201946416

 Starting LUCCSD calculation

 Reference energy:                    -38.27971333

 ITER.     SQ.NORM      CORR.ENERGY   TOTAL ENERGY   ENERGY CHANGE        DEN1      VAR(S)    VAR(P)  DIIS     TIME
   1      1.05397811    -0.12866299   -38.40837632    -0.12866299    -0.00443589  0.27D-03  0.16D-02  1  1     9.58
   2      1.06091518    -0.13319423   -38.41290756    -0.00453124    -0.00087032  0.33D-04  0.39D-03  2  2    12.85
   3      1.06680075    -0.13603298   -38.41574632    -0.00283875    -0.00029616  0.12D-04  0.15D-03  3  3    16.15
   4      1.06989280    -0.13700724   -38.41672057    -0.00097426    -0.00007726  0.30D-05  0.42D-04  4  4    19.43
   5      1.07198628    -0.13749337   -38.41720670    -0.00048613    -0.00002374  0.66D-06  0.14D-04  5  5    22.82
   6      1.07249190    -0.13747636   -38.41718970     0.00001701    -0.00000671  0.11D-06  0.38D-05  6  6    25.72
   7      1.07287691    -0.13753256   -38.41724589    -0.00005619    -0.00000159  0.11D-07  0.94D-06  6  1    29.10
   8      1.07311105    -0.13757102   -38.41728435    -0.00003846    -0.00000026  0.24D-08  0.15D-06  6  2    32.11
   9      1.07316084    -0.13757328   -38.41728661    -0.00000226    -0.00000003  0.10D-08  0.15D-07  6  3    35.49
  10      1.07318613    -0.13757719   -38.41729052    -0.00000391    -0.00000000  0.19D-09  0.17D-08  6  4    38.49
  11      1.07318876    -0.13757793   -38.41729126    -0.00000073    -0.00000000  0.30D-10  0.11D-09  6  5    41.41
  12      1.07319020    -0.13757819   -38.41729152    -0.00000026    -0.00000000  0.46D-11  0.21D-10  6  6    44.28
  13      1.07319046    -0.13757808   -38.41729142     0.00000010    -0.00000000  0.10D-11  0.55D-11  6  1    47.36
