
 Primary working directories    : /scratch/kmoore
 Secondary working directories  : /scratch/kmoore
 Wavefunction directory         : /scratch/kmoore/
 Main file repository           : /scratch/kmoore/

 SHA1      : b6b3a4772808bb2d43777f23454e145ddfe12dc3
 NAME      : 2015.1.1
 ARCHNAME  : linux/x86_64
 FC        : /soft/mvapich2/2.2b_psm/intel-15.0/bin/mpif90
 BLASLIB   : -L/soft/intel/15.0.1/composer_xe_2015.0.090/mkl/lib/intel64 -lmkl_intel_ilp64 -lmkl_sequential -lmkl_core
 id        : anlgov

 Nodes     nprocs
 b448         3
 Number of processes for MPI-2 version of Molpro:   nprocs(total)=    4   nprocs(compute)=    3   nprocs(helper)=    1

 Using customized tuning parameters: mindgm=1; mindgv=20; mindgc=4; mindgr=1; noblas=0; minvec=7
 default implementation of scratch files=sf  

 memory,1000,m
 gthresh,energy=1.0d-10,orbital=1.0d-10
 
 angstrom
 Geometry = {
 O         -0.00000       -0.01840        0.00000
 H          0.00000        0.53835       -0.78304
 H         -0.00000        0.53835        0.78304
 }
 
 basis=cc-pVDZ
 
 {rhf}
 {ccsd(t)}
 {optg}
 {freq}
 

 Variables initialized (889), CPU time= 0.00 sec
 Commands  initialized (702), CPU time= 0.01 sec, 572 directives.
 Default parameters read. Elapsed time= 0.06 sec

 Checking input...
 Passed
1


                                         ***  PROGRAM SYSTEM MOLPRO  ***
                                       Copyright, TTI GmbH Stuttgart, 2015
                                    Version 2015.1 linked Jan  8 2016 07:59:11


 **********************************************************************************************************************************
 LABEL *                                                                                 
  64 bit mpp version                                                                     DATE: 23-Dec-18          TIME: 10:13:30  
 **********************************************************************************************************************************

 SHA1:             b6b3a4772808bb2d43777f23454e145ddfe12dc3
 **********************************************************************************************************************************

 THRESHOLDS:

 ZERO    =  1.00D-12  ONEINT  =  1.00D-12  TWOINT  =  1.00D-11  PREFAC  =  1.00D-14  LOCALI  =  1.00D-09  EORDER  =  1.00D-04
 ENERGY  =  1.00D-10  ETEST   =  0.00D+00  EDENS   =  0.00D+00  THRDEDEF=  1.00D-06  GRADIENT=  1.00D-02  STEP    =  1.00D-03
 ORBITAL =  1.00D-10  CIVEC   =  1.00D-05  COEFF   =  1.00D-04  PRINTCI =  5.00D-02  PUNCHCI =  9.90D+01  OPTGRAD =  3.00D-04
 OPTENERG=  1.00D-06  OPTSTEP =  3.00D-04  THRGRAD =  1.00D-10  COMPRESS=  1.00D-11  VARMIN  =  1.00D-07  VARMAX  =  1.00D-03
 THRDOUB =  0.00D+00  THRDIV  =  1.00D-05  THRRED  =  1.00D-07  THRPSP  =  1.00D+00  THRDC   =  1.00D-10  THRCS   =  1.00D-10
 THRNRM  =  1.00D-08  THREQ   =  0.00D+00  THRDE   =  1.00D+00  THRREF  =  1.00D-05  SPARFAC =  1.00D+00  THRDLP  =  1.00D-07
 THRDIA  =  1.00D-10  THRDLS  =  1.00D-07  THRGPS  =  0.00D+00  THRKEX  =  0.00D+00  THRDIS  =  2.00D-01  THRVAR  =  1.00D-10
 THRLOC  =  1.00D-06  THRGAP  =  1.00D-06  THRLOCT = -1.00D+00  THRGAPT = -1.00D+00  THRORB  =  1.00D-06  THRMLTP =  0.00D+00
 THRCPQCI=  1.00D-10  KEXTA   =  0.00D+00  THRCOARS=  0.00D+00  SYMTOL  =  1.00D-06  GRADTOL =  1.00D-06  THROVL  =  1.00D-08
 THRORTH =  1.00D-08  GRID    =  1.00D-06  GRIDMAX =  1.00D-03  DTMAX   =  0.00D+00  THROCCDE=  1.00D-01  THROCCDE=  1.00D-01


 ZUNIT=ANG
 

Geometry recognized as XYZ


 Variable memory set to 1000000000 words,  buffer space   230000 words

 SETTING BASIS          =    CC-PVDZ


 Recomputing integrals since basis changed


 Using spherical harmonics

 Library entry O      S cc-pVDZ              selected for orbital group  1
 Library entry O      P cc-pVDZ              selected for orbital group  1
 Library entry O      D cc-pVDZ              selected for orbital group  1
 Library entry H      S cc-pVDZ              selected for orbital group  2
 Library entry H      P cc-pVDZ              selected for orbital group  2

1PROGRAM * SEWARD (Integral evaluation for generally contracted gaussian basis sets)     Author: Roland Lindh, 1990

 Geometry written to block  1 of record 700


 Point group  C2v 



 ATOMIC COORDINATES

 NR  ATOM    CHARGE       X              Y              Z

   1  O       8.00    0.000000000   -0.034770961    0.000000000
   2  H       1.00    0.000000000    1.017334059   -1.479731145
   3  H       1.00    0.000000000    1.017334059    1.479731145

 Bond lengths in Bohr (Angstrom)

 1-2  1.815634664  1-3  1.815634664
     ( 0.960792488)     ( 0.960792488)

 Bond angles

  2-1-3  109.17351408

 NUCLEAR CHARGE:                   10
 NUMBER OF PRIMITIVE AOS:          41
 NUMBER OF SYMMETRY AOS:           40
 NUMBER OF CONTRACTIONS:           24   (  11A1  +   4B1  +   7B2  +   2A2  )
 NUMBER OF CORE ORBITALS:           1   (   1A1  +   0B1  +   0B2  +   0A2  )
 NUMBER OF VALENCE ORBITALS:        6   (   3A1  +   1B1  +   2B2  +   0A2  )


 NUCLEAR REPULSION ENERGY    9.15024474

 Eigenvalues of metric

         1 0.181E-01 0.511E-01 0.161E+00 0.221E+00 0.504E+00 0.986E+00 0.101E+01 0.127E+01
         2 0.183E+00 0.530E+00 0.109E+01 0.224E+01
         3 0.436E-01 0.996E-01 0.172E+00 0.674E+00 0.106E+01 0.118E+01 0.257E+01
         4 0.614E+00 0.134E+01


 Contracted 2-electron integrals neglected if value below      1.0D-14
 AO integral compression algorithm  1   Integral accuracy      1.0D-14

     0.786 MB (compressed) written to integral file (100.0%)

     Node minimum: 0.262 MB, node maximum: 0.262 MB


 NUMBER OF SORTED TWO-ELECTRON INTEGRALS:       4533.     BUFFER LENGTH:  32768
 NUMBER OF SEGMENTS:   1  SEGMENT LENGTH:       4533      RECORD LENGTH: 524288

 Memory used in sort:       0.56 MW

 SORT1 READ       19290. AND WROTE        4192. INTEGRALS IN      1 RECORDS. CPU TIME:     0.00 SEC, REAL TIME:     0.01 SEC
 SORT2 READ       12657. AND WROTE       13826. INTEGRALS IN      3 RECORDS. CPU TIME:     0.01 SEC, REAL TIME:     0.00 SEC

 Node minimum:        4366.  Node maximum:        4927. integrals

 OPERATOR DM      FOR CENTER  0  COORDINATES:    0.000000    0.000000    0.000000


 **********************************************************************************************************************************
 DATASETS  * FILE   NREC   LENGTH (MB)   RECORD NAMES
              1      18       19.10       500      610      700      900      950      970     1000      129      960     1100   
                                          VAR    BASINP    GEOM    SYMINP    ZMAT    AOBASIS   BASIS     P2S    ABASIS      S 
                                         1400     1410     1200     1210     1080     1600     1650     1700   
                                           T        V       H0       H01     AOSYM     SMH    MOLCAS    OPER   

 PROGRAMS   *        TOTAL       INT
 CPU TIMES  *         0.33      0.22
 REAL TIME  *         0.77 SEC
 DISK USED  *        12.72 MB      
 GA USED    *         0.00 MB       (max)       0.00 MB       (current)
 **********************************************************************************************************************************

1PROGRAM * RHF-SCF (CLOSED SHELL)       Authors: W. Meyer, H.-J. Werner


 NUMBER OF ELECTRONS:       5+    5-
 CONVERGENCE THRESHOLDS:    1.00E-10 (Density)    1.00E-11 (Energy)
 MAX. NUMBER OF ITERATIONS:       60
 INTERPOLATION TYPE:            DIIS
 INTERPOLATION STEPS:              2 (START)      1 (STEP)
 LEVEL SHIFTS:                  0.00 (CLOSED)  0.00 (OPEN) 



 Orbital guess generated from atomic densities. Full valence occupancy:    4   1   2   0

 Molecular orbital dump at record        2100.2

 Initial occupancy:   3   1   1   0

 ITERATION    DDIFF          GRAD             ENERGY        2-EL.EN.            DIPOLE MOMENTS         DIIS   ORB.
    1      0.000D+00      0.000D+00       -75.98833057     77.848169    0.00000    1.09666    0.00000    0    start
    2      0.000D+00      0.371D-01       -76.01738125     74.590966    0.00000    0.73151    0.00000    1    diag
    3      0.768D-01      0.193D-01       -76.02568970     75.905617    0.00000    0.79817    0.00000    2    diag
    4      0.252D-01      0.220D-02       -76.02590646     75.809314    0.00000    0.78616    0.00000    3    diag
    5      0.491D-02      0.574D-03       -76.02592323     75.820412    0.00000    0.78242    0.00000    4    diag
    6      0.146D-02      0.923D-04       -76.02592381     75.820380    0.00000    0.78168    0.00000    5    diag
    7      0.234D-03      0.139D-04       -76.02592382     75.820324    0.00000    0.78152    0.00000    6    diag
    8      0.437D-04      0.170D-05       -76.02592382     75.820317    0.00000    0.78151    0.00000    7    diag
    9      0.474D-05      0.393D-06       -76.02592382     75.820316    0.00000    0.78150    0.00000    8    diag
   10      0.119D-05      0.660D-07       -76.02592382     75.820317    0.00000    0.78150    0.00000    9    orth
   11      0.196D-06      0.509D-08       -76.02592382     75.820316    0.00000    0.78150    0.00000    9    diag
   12      0.151D-07      0.968D-09       -76.02592382     75.820317    0.00000    0.78150    0.00000    9    diag
   13      0.282D-08      0.151D-09       -76.02592382     75.820317    0.00000    0.78150    0.00000    9    diag
   14      0.313D-09      0.196D-10       -76.02592382     75.820317    0.00000    0.78150    0.00000    9    diag
   15      0.489D-10      0.291D-11       -76.02592382     75.820317    0.00000    0.78150    0.00000    0    orth

 Final occupancy:   3   1   1   0

 !RHF STATE 1.1 Energy                -76.025923822016
 Nuclear energy                         9.15024474
 One-electron energy                 -123.08632682
 Two-electron energy                   37.91015825
 Virial quotient                       -1.00076032
 !RHF STATE 1.1 Dipole moment           0.00000000     0.78150320     0.00000000
 Dipole moment /Debye                   0.00000000     1.98625291     0.00000000

 Orbital energies:

         1.1          2.1          3.1          4.1          5.1
    -20.548356    -1.331223    -0.556416     0.185737     0.829267

         1.2          2.2          3.2
     -0.491134     1.201634     1.698819

         1.3          2.3          3.3
     -0.705877     0.255202     0.803703

         1.4          2.4
      1.461032     3.353357

 HOMO      1.2    -0.491134 =     -13.3644eV
 LUMO      4.1     0.185737 =       5.0542eV
 LUMO-HOMO         0.676872 =      18.4186eV


 **********************************************************************************************************************************
 DATASETS  * FILE   NREC   LENGTH (MB)   RECORD NAMES
              1      18       19.10       500      610      700      900      950      970     1000      129      960     1100   
                                          VAR    BASINP    GEOM    SYMINP    ZMAT    AOBASIS   BASIS     P2S    ABASIS      S 
                                         1400     1410     1200     1210     1080     1600     1650     1700   
                                           T        V       H0       H01     AOSYM     SMH    MOLCAS    OPER   

              2       4        0.40       700     1000      520     2100   
                                         GEOM     BASIS   MCVARS     RHF  

 PROGRAMS   *        TOTAL       RHF       INT
 CPU TIMES  *         0.34      0.01      0.22
 REAL TIME  *         0.78 SEC
 DISK USED  *        71.39 MB      
 SF USED    *         0.00 MB      
 GA USED    *         0.00 MB       (max)       0.00 MB       (current)
 **********************************************************************************************************************************


1PROGRAM * CCSD (Closed-shell coupled cluster)     Authors: C. Hampel, H.-J. Werner, 1991, M. Deegan, P.J. Knowles, 1992


 Convergence thresholds:  THRVAR = 1.00D-14  THRDEN = 1.00D-10

 CCSD(T)     terms to be evaluated (factor= 1.000)


 Number of core orbitals:           1 (   1   0   0   0 )
 Number of closed-shell orbitals:   4 (   2   1   1   0 )
 Number of external orbitals:      19 (   8   3   6   2 )

 Molecular orbitals read from record     2100.2  Type=RHF/CANONICAL (state 1.1)

 Number of N-1 electron functions:               4
 Number of N-2 electron functions:              10
 Number of singly external CSFs:                25
 Number of doubly external CSFs:               805
 Total number of CSFs:                         831

 Length of J-op  integral file:               0.00 MB
 Length of K-op  integral file:               0.01 MB
 Length of 3-ext integral record:             0.00 MB

 Memory could be reduced to 0.30 Mwords without degradation in triples

 Integral transformation finished. Total CPU:   0.00 sec, npass=  1  Memory used:   0.07 MW

 Reference energy:                    -76.02592382

 MP2 singlet pair energy:              -0.12549484
 MP2 triplet pair energy:              -0.07596658
 MP2 correlation energy:               -0.20146142
 MP2 total energy:                    -76.22738524

 SCS-MP2 correlation energy:           -0.19786191   (PS=  1.200000  PT=  0.333333)
 SCS-MP2 total energy:                -76.22378573

 ITER.      SQ.NORM     CORR.ENERGY   TOTAL ENERGY   ENERGY CHANGE        DEN1      VAR(S)    VAR(P)  DIIS     TIME  TIME/IT
   1      1.05277237    -0.21005954   -76.23598337    -0.00859812    -0.00504255  0.27D-03  0.67D-03  1  1     0.01     0.02
   2      1.05591764    -0.21099439   -76.23691821    -0.00093485    -0.00386894  0.54D-05  0.56D-04  2  2     0.01     0.01
   3      1.05669091    -0.21106880   -76.23699262    -0.00007441    -0.00058730  0.20D-05  0.22D-05  3  3     0.02     0.01
   4      1.05686428    -0.21107153   -76.23699535    -0.00000273    -0.00009440  0.14D-06  0.13D-06  4  4     0.02     0.01
   5      1.05689808    -0.21107013   -76.23699395     0.00000140    -0.00001541  0.38D-07  0.79D-08  5  5     0.02     0.01
   6      1.05690324    -0.21107009   -76.23699391     0.00000004     0.00000037  0.48D-08  0.89D-09  6  6     0.02     0.01
   7      1.05690618    -0.21107003   -76.23699385     0.00000006    -0.00000029  0.16D-09  0.74D-10  6  1     0.02     0.01
   8      1.05690658    -0.21106998   -76.23699380     0.00000005     0.00000005  0.39D-11  0.49D-11  6  2     0.03     0.00
   9      1.05690669    -0.21106997   -76.23699379     0.00000001    -0.00000006  0.79D-13  0.30D-12  6  3     0.03     0.00
  10      1.05690672    -0.21106997   -76.23699379     0.00000000    -0.00000002  0.21D-14  0.84D-14  6  4     0.03     0.00
  11      1.05690673    -0.21106997   -76.23699379     0.00000000    -0.00000000  0.18D-15  0.34D-15  6  6     0.03     0.00
  12      1.05690673    -0.21106997   -76.23699379     0.00000000    -0.00000000  0.65D-17  0.12D-16  6  5     0.03     0.00
  13      1.05690673    -0.21106997   -76.23699379     0.00000000    -0.00000000  0.13D-17  0.86D-18  6  1     0.03     0.00

 Norm of t1 vector:      0.02354382      S-energy:    -0.00000000      T1 diagnostic:  0.00588596
                                                                       D1 diagnostic:  0.01138755

 Doubles amplitudes (print threshold =  0.500E-01):

         I         J         SYM. A    SYM. B    A         B      T(IJ, AB)

         3         3         2         2         1         1     -0.05145081


 Total CPU time for triples:      0.00 sec


 RESULTS
 =======

  Reference energy                    -76.025923822016
  CCSD singlet pair energy             -0.143218418832
  CCSD triplet pair energy             -0.067851547072
  CCSD correlation energy              -0.211069965916

  Triples (T) contribution             -0.003006160083
  Total correlation energy             -0.214076125999

  CCSD total energy                   -76.236993787932
  CCSD[T] energy                      -76.240083896170
  CCSD-T energy                       -76.239946148781
 !CCSD(T) total energy                -76.239999948015

 Timing summary (sec):

 STEP                 CPU(USER)    SYS     CPU(TOT)    WALL
 CCSD iterations         0.03      0.01      0.04      0.05

 Program statistics:

 Available memory in ccsd:               999999836
 Min. memory needed in ccsd:                  5661
 Max. memory used in ccsd:                    6126
 Max. memory used in cckext:                 38485 (13 integral passes)



 **********************************************************************************************************************************
 DATASETS  * FILE   NREC   LENGTH (MB)   RECORD NAMES
              1      19       19.16       500      610      700      900      950      970     1000      129      960     1100   
                                          VAR    BASINP    GEOM    SYMINP    ZMAT    AOBASIS   BASIS     P2S    ABASIS      S 
                                         1400     1410     1200     1210     1080     1600     1650     1700     1380   
                                           T        V       H0       H01     AOSYM     SMH    MOLCAS    OPER     JKOP   

              2       4        0.40       700     1000      520     2100   
                                         GEOM     BASIS   MCVARS     RHF  

 PROGRAMS   *        TOTAL   CCSD(T)       RHF       INT
 CPU TIMES  *         0.40      0.05      0.01      0.22
 REAL TIME  *         0.88 SEC
 DISK USED  *        71.54 MB      
 SF USED    *         0.16 MB      
 GA USED    *         0.00 MB       (max)       0.00 MB       (current)
 **********************************************************************************************************************************


 PROGRAM * OPT (Geometry optimization)     Authors: F. Eckert and H.-J. Werner


 BFGS update of hessian

 Running default procedure: RHF-SCF000  CCSD(T)

 Geometry optimization using default procedure for command CCSD(T)

 Geometry written to block  1 of record 700
 

 Generated   2 symmetrical displacements

 Number of displacements for numerical gradient:      4

 Starting numerical gradient for CCSD(T)
 Starting task   1   Incrementing displacement  1 by  1.   CPU=    0.00 sec, Elapsed=    0.00 sec


 Recomputing integrals since geometry changed

1PROGRAM * SEWARD (Integral evaluation for generally contracted gaussian basis sets)     Author: Roland Lindh, 1990

 Geometry written to block  1 of record 700


 Point group  C2v 



 ATOMIC COORDINATES

 NR  ATOM    CHARGE       X              Y              Z

   1  O       8.00    0.000000000   -0.029457839    0.000000000
   2  H       1.00    0.000000000    1.014677498   -1.485100320
   3  H       1.00    0.000000000    1.014677498    1.485100320

 Bond lengths in Bohr (Angstrom)

 1-2  1.815417738  1-3  1.815417738
     ( 0.960677695)     ( 0.960677695)

 Bond angles

  2-1-3  109.77989292

 NUCLEAR CHARGE:                   10
 NUMBER OF PRIMITIVE AOS:          41
 NUMBER OF SYMMETRY AOS:           40
 NUMBER OF CONTRACTIONS:           24   (  11A1  +   4B1  +   7B2  +   2A2  )
 NUMBER OF CORE ORBITALS:           1   (   1A1  +   0B1  +   0B2  +   0A2  )
 NUMBER OF VALENCE ORBITALS:        6   (   3A1  +   1B1  +   2B2  +   0A2  )


 NUCLEAR REPULSION ENERGY    9.15007611

 Eigenvalues of metric

         1 0.182E-01 0.511E-01 0.162E+00 0.221E+00 0.503E+00 0.986E+00 0.101E+01 0.127E+01
         2 0.183E+00 0.530E+00 0.109E+01 0.224E+01
         3 0.435E-01 0.996E-01 0.172E+00 0.674E+00 0.106E+01 0.118E+01 0.257E+01
         4 0.613E+00 0.135E+01


 Contracted 2-electron integrals neglected if value below      1.0D-14
 AO integral compression algorithm  1   Integral accuracy      1.0D-14

     0.786 MB (compressed) written to integral file (100.0%)

     Node minimum: 0.262 MB, node maximum: 0.262 MB


 NUMBER OF SORTED TWO-ELECTRON INTEGRALS:       4533.     BUFFER LENGTH:  32768
 NUMBER OF SEGMENTS:   1  SEGMENT LENGTH:       4533      RECORD LENGTH: 524288

 Memory used in sort:       0.56 MW

 SORT1 READ       19290. AND WROTE        4192. INTEGRALS IN      1 RECORDS. CPU TIME:     0.00 SEC, REAL TIME:     0.00 SEC
 SORT2 READ       12657. AND WROTE       13826. INTEGRALS IN      3 RECORDS. CPU TIME:     0.01 SEC, REAL TIME:     0.01 SEC

 Node minimum:        4366.  Node maximum:        4927. integrals

 OPERATOR DM      FOR CENTER  0  COORDINATES:    0.000000    0.000000    0.000000
1PROGRAM * RHF-SCF (CLOSED SHELL)       Authors: W. Meyer, H.-J. Werner


 NUMBER OF ELECTRONS:       5+    5-
 CONVERGENCE THRESHOLDS:    1.00E-10 (Density)    1.00E-11 (Energy)
 MAX. NUMBER OF ITERATIONS:       60
 INTERPOLATION TYPE:            DIIS
 INTERPOLATION STEPS:              2 (START)      1 (STEP)
 LEVEL SHIFTS:                  0.00 (CLOSED)  0.00 (OPEN) 

 Number of closed-shell orbitals:    5 (   3   1   1   0 )


 Molecular orbitals read from record     2100.2  Type=RHF/CANONICAL (state 1.1)

 Molecular orbital dump at record        2100.1

 ITERATION    DDIFF          GRAD             ENERGY        2-EL.EN.            DIPOLE MOMENTS         DIIS   ORB.
    1      0.000D+00      0.000D+00       -76.02575491     75.821902    0.00000    0.77786    0.00000    0    start
    2      0.000D+00      0.399D-03       -76.02576087     75.824364    0.00000    0.77728    0.00000    1    diag
    3      0.111D-02      0.836D-04       -76.02576121     75.823385    0.00000    0.77737    0.00000    2    diag
    4      0.286D-03      0.133D-04       -76.02576122     75.824443    0.00000    0.77752    0.00000    3    diag
    5      0.276D-04      0.723D-05       -76.02576123     75.824098    0.00000    0.77754    0.00000    4    diag
    6      0.128D-04      0.135D-05       -76.02576123     75.824120    0.00000    0.77757    0.00000    5    diag
    7      0.411D-05      0.222D-06       -76.02576123     75.824119    0.00000    0.77757    0.00000    6    diag
    8      0.617D-06      0.549D-07       -76.02576123     75.824119    0.00000    0.77757    0.00000    7    orth
    9      0.155D-06      0.786D-08       -76.02576123     75.824119    0.00000    0.77757    0.00000    8    diag
   10      0.222D-07      0.990D-09       -76.02576123     75.824119    0.00000    0.77757    0.00000    9    diag
   11      0.257D-08      0.143D-09       -76.02576123     75.824119    0.00000    0.77757    0.00000    9    diag
   12      0.386D-09      0.119D-10       -76.02576123     75.824119    0.00000    0.77757    0.00000    9    diag
   13      0.299D-10      0.138D-11       -76.02576123     75.824119    0.00000    0.77757    0.00000    0    orth

 Final occupancy:   3   1   1   0

 !RHF STATE 1.1 Energy                -76.025761227021
 Nuclear energy                         9.15007611
 One-electron energy                 -123.08789706
 Two-electron energy                   37.91205972
 Virial quotient                       -1.00076424
 !RHF STATE 1.1 Dipole moment           0.00000000     0.77756818     0.00000000
 Dipole moment /Debye                   0.00000000     1.97625173     0.00000000

 Orbital energies:

         1.1          2.1          3.1          4.1          5.1
    -20.547969    -1.330808    -0.555209     0.185836     0.826481

         1.2          2.2          3.2
     -0.490907     1.201808     1.701922

         1.3          2.3          3.3
     -0.706996     0.255151     0.806120

         1.4          2.4
      1.459326     3.355823

 HOMO      1.2    -0.490907 =     -13.3583eV
 LUMO      4.1     0.185836 =       5.0569eV
 LUMO-HOMO         0.676743 =      18.4151eV


 **********************************************************************************************************************************
 DATASETS  * FILE   NREC   LENGTH (MB)   RECORD NAMES
              1      19       19.22       500      610      700      900      950      970     1000      129      960     1100   
                                          VAR    BASINP    GEOM    SYMINP    ZMAT    AOBASIS   BASIS     P2S    ABASIS      S 
                                         1400     1410     1200     1210     1080     1600     1650     1700     2100   
                                           T        V       H0       H01     AOSYM     SMH    MOLCAS    OPER      RHF  

              2       5        0.41       700     1000      520     2100     5600   
                                         GEOM     BASIS   MCVARS     RHF     GINFO   

 PROGRAMS   *        TOTAL       RHF   CCSD(T)       RHF       INT
 CPU TIMES  *         1.22      0.17      0.05      0.01      0.22
 REAL TIME  *         2.84 SEC
 DISK USED  *        71.79 MB      
 SF USED    *         0.16 MB      
 GA USED    *         0.00 MB       (max)       0.00 MB       (current)
 **********************************************************************************************************************************


1PROGRAM * CCSD (Closed-shell coupled cluster)     Authors: C. Hampel, H.-J. Werner, 1991, M. Deegan, P.J. Knowles, 1992


 Convergence thresholds:  THRVAR = 1.00D-14  THRDEN = 1.00D-10

 CCSD(T)     terms to be evaluated (factor= 1.000)


 Number of core orbitals:           1 (   1   0   0   0 )
 Number of closed-shell orbitals:   4 (   2   1   1   0 )
 Number of external orbitals:      19 (   8   3   6   2 )

 Molecular orbitals read from record     2100.1  Type=RHF/CANONICAL (state 1.1)

 Number of N-1 electron functions:               4
 Number of N-2 electron functions:              10
 Number of singly external CSFs:                25
 Number of doubly external CSFs:               805
 Total number of CSFs:                         831

 Length of J-op  integral file:               0.00 MB
 Length of K-op  integral file:               0.01 MB
 Length of 3-ext integral record:             0.00 MB

 Memory could be reduced to 0.31 Mwords without degradation in triples

 Integral transformation finished. Total CPU:   0.00 sec, npass=  1  Memory used:   0.07 MW

 Reference energy:                    -76.02576123

 MP2 singlet pair energy:              -0.12545776
 MP2 triplet pair energy:              -0.07594936
 MP2 correlation energy:               -0.20140713
 MP2 total energy:                    -76.22716835

 SCS-MP2 correlation energy:           -0.19780670   (PS=  1.200000  PT=  0.333333)
 SCS-MP2 total energy:                -76.22356792

 ITER.      SQ.NORM     CORR.ENERGY   TOTAL ENERGY   ENERGY CHANGE        DEN1      VAR(S)    VAR(P)  DIIS     TIME  TIME/IT
   1      1.05274329    -0.21000862   -76.23576985    -0.00860150    -0.00505016  0.26D-03  0.67D-03  1  1     0.01     0.00
   2      1.05588476    -0.21094332   -76.23670454    -0.00093470    -0.00386571  0.54D-05  0.55D-04  2  2     0.01     0.00
   3      1.05665643    -0.21101768   -76.23677891    -0.00007436    -0.00058638  0.20D-05  0.22D-05  3  3     0.01     0.00
   4      1.05682931    -0.21102040   -76.23678162    -0.00000272    -0.00009411  0.15D-06  0.13D-06  4  4     0.01     0.00
   5      1.05686316    -0.21101900   -76.23678023     0.00000140    -0.00001540  0.38D-07  0.80D-08  5  5     0.01     0.00
   6      1.05686837    -0.21101896   -76.23678019     0.00000004     0.00000037  0.48D-08  0.90D-09  6  6     0.01     0.00
   7      1.05687134    -0.21101890   -76.23678013     0.00000006    -0.00000029  0.16D-09  0.75D-10  6  1     0.01     0.00
   8      1.05687175    -0.21101885   -76.23678008     0.00000005     0.00000005  0.39D-11  0.50D-11  6  2     0.02     0.00
   9      1.05687186    -0.21101884   -76.23678007     0.00000001    -0.00000006  0.79D-13  0.30D-12  6  3     0.02     0.00
  10      1.05687189    -0.21101884   -76.23678007     0.00000000    -0.00000002  0.21D-14  0.85D-14  6  4     0.02     0.00
  11      1.05687189    -0.21101884   -76.23678007     0.00000000    -0.00000000  0.19D-15  0.35D-15  6  6     0.02     0.00
  12      1.05687189    -0.21101884   -76.23678007     0.00000000    -0.00000000  0.70D-17  0.12D-16  6  5     0.02     0.00
  13      1.05687190    -0.21101884   -76.23678007     0.00000000    -0.00000000  0.14D-17  0.86D-18  6  1     0.02     0.00

 Norm of t1 vector:      0.02351488      S-energy:    -0.00000000      T1 diagnostic:  0.00587872
                                                                       D1 diagnostic:  0.01139981

 Doubles amplitudes (print threshold =  0.500E-01):

         I         J         SYM. A    SYM. B    A         B      T(IJ, AB)

         3         3         2         2         1         1     -0.05145408

 Total CPU time for triples:      0.00 sec


 RESULTS
 =======

  Reference energy                    -76.025761227021
  CCSD singlet pair energy             -0.143176756068
  CCSD triplet pair energy             -0.067842084028
  CCSD correlation energy              -0.211018840107

  Triples (T) contribution             -0.003000393343
  Total correlation energy             -0.214019233450

  CCSD total energy                   -76.236780067129
  CCSD[T] energy                      -76.239864162295
  CCSD-T energy                       -76.239726834501
 !CCSD(T) total energy                -76.239780460471

 Timing summary (sec):

 STEP                 CPU(USER)    SYS     CPU(TOT)    WALL
 CCSD iterations         0.02      0.01      0.03      0.03

 Program statistics:

 Available memory in ccsd:               999998800
 Min. memory needed in ccsd:                  5661
 Max. memory used in ccsd:                    6126
 Max. memory used in cckext:                 38485 (13 integral passes)



 **********************************************************************************************************************************
 DATASETS  * FILE   NREC   LENGTH (MB)   RECORD NAMES
              1      20       19.28       500      610      700      900      950      970     1000      129      960     1100   
                                          VAR    BASINP    GEOM    SYMINP    ZMAT    AOBASIS   BASIS     P2S    ABASIS      S 
                                         1400     1410     1200     1210     1080     1600     1650     1700     2100     1380   
                                           T        V       H0       H01     AOSYM     SMH    MOLCAS    OPER      RHF     JKOP   

              2       5        0.41       700     1000      520     2100     5600   
                                         GEOM     BASIS   MCVARS     RHF     GINFO   

 PROGRAMS   *        TOTAL   CCSD(T)   CCSD(T)       RHF       INT
 CPU TIMES  *         1.27      0.04      0.05      0.01      0.22
 REAL TIME  *         2.90 SEC
 DISK USED  *        71.92 MB      
 SF USED    *         0.16 MB      
 GA USED    *         0.00 MB       (max)       0.00 MB       (current)
 **********************************************************************************************************************************
 Starting task   2   Incrementing displacement  1 by -1.   CPU=    0.37 sec, Elapsed=    0.37 sec


 Recomputing integrals since geometry changed

1PROGRAM * SEWARD (Integral evaluation for generally contracted gaussian basis sets)     Author: Roland Lindh, 1990

 Geometry written to block  1 of record 700


 Point group  C2v 



 ATOMIC COORDINATES

 NR  ATOM    CHARGE       X              Y              Z

   1  O       8.00    0.000000000   -0.040084083    0.000000000
   2  H       1.00    0.000000000    1.019990620   -1.474361969
   3  H       1.00    0.000000000    1.019990620    1.474361969

 Bond lengths in Bohr (Angstrom)

 1-2  1.815902418  1-3  1.815902418
     ( 0.960934177)     ( 0.960934177)

 Bond angles

  2-1-3  108.56729709

 NUCLEAR CHARGE:                   10
 NUMBER OF PRIMITIVE AOS:          41
 NUMBER OF SYMMETRY AOS:           40
 NUMBER OF CONTRACTIONS:           24   (  11A1  +   4B1  +   7B2  +   2A2  )
 NUMBER OF CORE ORBITALS:           1   (   1A1  +   0B1  +   0B2  +   0A2  )
 NUMBER OF VALENCE ORBITALS:        6   (   3A1  +   1B1  +   2B2  +   0A2  )


 NUCLEAR REPULSION ENERGY    9.15017589

 Eigenvalues of metric

         1 0.181E-01 0.511E-01 0.161E+00 0.221E+00 0.505E+00 0.986E+00 0.101E+01 0.127E+01
         2 0.183E+00 0.529E+00 0.109E+01 0.224E+01
         3 0.438E-01 0.995E-01 0.172E+00 0.674E+00 0.105E+01 0.118E+01 0.256E+01
         4 0.615E+00 0.134E+01


 Contracted 2-electron integrals neglected if value below      1.0D-14
 AO integral compression algorithm  1   Integral accuracy      1.0D-14

     0.786 MB (compressed) written to integral file (100.0%)

     Node minimum: 0.262 MB, node maximum: 0.262 MB


 NUMBER OF SORTED TWO-ELECTRON INTEGRALS:       4533.     BUFFER LENGTH:  32768
 NUMBER OF SEGMENTS:   1  SEGMENT LENGTH:       4533      RECORD LENGTH: 524288

 Memory used in sort:       0.56 MW

 SORT1 READ       19290. AND WROTE        4192. INTEGRALS IN      1 RECORDS. CPU TIME:     0.01 SEC, REAL TIME:     0.01 SEC
 SORT2 READ       12657. AND WROTE       13826. INTEGRALS IN      3 RECORDS. CPU TIME:     0.00 SEC, REAL TIME:     0.00 SEC

 Node minimum:        4366.  Node maximum:        4927. integrals

 OPERATOR DM      FOR CENTER  0  COORDINATES:    0.000000    0.000000    0.000000
1PROGRAM * RHF-SCF (CLOSED SHELL)       Authors: W. Meyer, H.-J. Werner


 NUMBER OF ELECTRONS:       5+    5-
 CONVERGENCE THRESHOLDS:    1.00E-10 (Density)    1.00E-11 (Energy)
 MAX. NUMBER OF ITERATIONS:       60
 INTERPOLATION TYPE:            DIIS
 INTERPOLATION STEPS:              2 (START)      1 (STEP)
 LEVEL SHIFTS:                  0.00 (CLOSED)  0.00 (OPEN) 

 Number of closed-shell orbitals:    5 (   3   1   1   0 )


 Molecular orbitals read from record     2100.2  Type=RHF/CANONICAL (state 1.1)

 Molecular orbital dump at record        2100.1

 ITERATION    DDIFF          GRAD             ENERGY        2-EL.EN.            DIPOLE MOMENTS         DIIS   ORB.
    1      0.000D+00      0.000D+00       -76.02606010     75.818571    0.00000    0.78517    0.00000    0    start
    2      0.000D+00      0.399D-03       -76.02606605     75.815834    0.00000    0.78571    0.00000    1    diag
    3      0.111D-02      0.838D-04       -76.02606639     75.816988    0.00000    0.78562    0.00000    2    diag
    4      0.287D-03      0.140D-04       -76.02606641     75.815844    0.00000    0.78547    0.00000    3    diag
    5      0.279D-04      0.745D-05       -76.02606641     75.816191    0.00000    0.78544    0.00000    4    diag
    6      0.135D-04      0.135D-05       -76.02606641     75.816172    0.00000    0.78542    0.00000    5    diag
    7      0.410D-05      0.219D-06       -76.02606641     75.816173    0.00000    0.78541    0.00000    6    diag
    8      0.607D-06      0.540D-07       -76.02606641     75.816173    0.00000    0.78541    0.00000    7    orth
    9      0.152D-06      0.795D-08       -76.02606641     75.816173    0.00000    0.78541    0.00000    8    diag
   10      0.225D-07      0.984D-09       -76.02606641     75.816173    0.00000    0.78541    0.00000    9    diag
   11      0.254D-08      0.142D-09       -76.02606641     75.816173    0.00000    0.78541    0.00000    9    diag
   12      0.384D-09      0.119D-10       -76.02606641     75.816173    0.00000    0.78541    0.00000    9    diag
   13      0.295D-10      0.129D-11       -76.02606641     75.816173    0.00000    0.78541    0.00000    0    orth

 Final occupancy:   3   1   1   0

 !RHF STATE 1.1 Energy                -76.026066408055
 Nuclear energy                         9.15017589
 One-electron energy                 -123.08432864
 Two-electron energy                   37.90808634
 Virial quotient                       -1.00075747
 !RHF STATE 1.1 Dipole moment           0.00000000     0.78541371     0.00000000
 Dipole moment /Debye                   0.00000000     1.99619178     0.00000000

 Orbital energies:

         1.1          2.1          3.1          4.1          5.1
    -20.548743    -1.331626    -0.557619     0.185629     0.832016

         1.2          2.2          3.2
     -0.491358     1.201460     1.695677

         1.3          2.3          3.3
     -0.704733     0.255250     0.801297

         1.4          2.4
      1.462759     3.350868

 HOMO      1.2    -0.491358 =     -13.3705eV
 LUMO      4.1     0.185629 =       5.0512eV
 LUMO-HOMO         0.676987 =      18.4218eV


 **********************************************************************************************************************************
 DATASETS  * FILE   NREC   LENGTH (MB)   RECORD NAMES
              1      19       19.22       500      610      700      900      950      970     1000      129      960     1100   
                                          VAR    BASINP    GEOM    SYMINP    ZMAT    AOBASIS   BASIS     P2S    ABASIS      S 
                                         1400     1410     1200     1210     1080     1600     1650     1700     2100   
                                           T        V       H0       H01     AOSYM     SMH    MOLCAS    OPER      RHF  

              2       5        0.41       700     1000      520     2100     5600   
                                         GEOM     BASIS   MCVARS     RHF     GINFO   

 PROGRAMS   *        TOTAL       RHF   CCSD(T)       RHF       INT
 CPU TIMES  *         1.44      0.17      0.05      0.01      0.22
 REAL TIME  *         3.11 SEC
 DISK USED  *        72.01 MB      
 SF USED    *         0.16 MB      
 GA USED    *         0.00 MB       (max)       0.00 MB       (current)
 **********************************************************************************************************************************


1PROGRAM * CCSD (Closed-shell coupled cluster)     Authors: C. Hampel, H.-J. Werner, 1991, M. Deegan, P.J. Knowles, 1992


 Convergence thresholds:  THRVAR = 1.00D-14  THRDEN = 1.00D-10

 CCSD(T)     terms to be evaluated (factor= 1.000)


 Number of core orbitals:           1 (   1   0   0   0 )
 Number of closed-shell orbitals:   4 (   2   1   1   0 )
 Number of external orbitals:      19 (   8   3   6   2 )

 Molecular orbitals read from record     2100.1  Type=RHF/CANONICAL (state 1.1)

 Number of N-1 electron functions:               4
 Number of N-2 electron functions:              10
 Number of singly external CSFs:                25
 Number of doubly external CSFs:               805
 Total number of CSFs:                         831

 Length of J-op  integral file:               0.00 MB
 Length of K-op  integral file:               0.01 MB
 Length of 3-ext integral record:             0.00 MB

 Memory could be reduced to 0.31 Mwords without degradation in triples

 Integral transformation finished. Total CPU:   0.01 sec, npass=  1  Memory used:   0.07 MW

 Reference energy:                    -76.02606641

 MP2 singlet pair energy:              -0.12553387
 MP2 triplet pair energy:              -0.07598551
 MP2 correlation energy:               -0.20151938
 MP2 total energy:                    -76.22758579

 SCS-MP2 correlation energy:           -0.19792052   (PS=  1.200000  PT=  0.333333)
 SCS-MP2 total energy:                -76.22398692

 ITER.      SQ.NORM     CORR.ENERGY   TOTAL ENERGY   ENERGY CHANGE        DEN1      VAR(S)    VAR(P)  DIIS     TIME  TIME/IT
   1      1.05280346    -0.21011364   -76.23618005    -0.00859426    -0.00503423  0.27D-03  0.67D-03  1  1     0.01     0.00
   2      1.05595285    -0.21104871   -76.23711512    -0.00093507    -0.00387236  0.54D-05  0.56D-04  2  2     0.01     0.00
   3      1.05672791    -0.21112318   -76.23718958    -0.00007446    -0.00058832  0.20D-05  0.22D-05  3  3     0.01     0.00
   4      1.05690182    -0.21112592   -76.23719233    -0.00000275    -0.00009471  0.14D-06  0.13D-06  4  4     0.01     0.00
   5      1.05693558    -0.21112451   -76.23719092     0.00000141    -0.00001541  0.37D-07  0.79D-08  5  5     0.01     0.00
   6      1.05694068    -0.21112447   -76.23719088     0.00000004     0.00000037  0.47D-08  0.88D-09  6  6     0.01     0.00
   7      1.05694359    -0.21112441   -76.23719082     0.00000006    -0.00000028  0.16D-09  0.74D-10  6  1     0.02     0.00
   8      1.05694399    -0.21112436   -76.23719077     0.00000005     0.00000005  0.39D-11  0.49D-11  6  2     0.02     0.00
   9      1.05694410    -0.21112435   -76.23719076     0.00000001    -0.00000006  0.79D-13  0.30D-12  6  3     0.02     0.00
  10      1.05694413    -0.21112435   -76.23719076     0.00000000    -0.00000002  0.20D-14  0.84D-14  6  4     0.02     0.00
  11      1.05694414    -0.21112435   -76.23719076     0.00000000    -0.00000000  0.18D-15  0.34D-15  6  6     0.02     0.00
  12      1.05694414    -0.21112435   -76.23719076     0.00000000    -0.00000000  0.60D-17  0.12D-16  6  5     0.02     0.00
  13      1.05694414    -0.21112435   -76.23719076     0.00000000    -0.00000000  0.12D-17  0.86D-18  6  1     0.02     0.00

 Norm of t1 vector:      0.02357559      S-energy:    -0.00000000      T1 diagnostic:  0.00589390
                                                                       D1 diagnostic:  0.01137652

 Doubles amplitudes (print threshold =  0.500E-01):

         I         J         SYM. A    SYM. B    A         B      T(IJ, AB)

         3         3         2         2         1         1     -0.05144766

 Total CPU time for triples:      0.00 sec


 RESULTS
 =======

  Reference energy                    -76.026066408055
  CCSD singlet pair energy             -0.143262358524
  CCSD triplet pair energy             -0.067861993341
  CCSD correlation energy              -0.211124351876

  Triples (T) contribution             -0.003012157947
  Total correlation energy             -0.214136509823

  CCSD total energy                   -76.237190759930
  CCSD[T] energy                      -76.240287126846
  CCSD-T energy                       -76.240148937287
 !CCSD(T) total energy                -76.240202917877

 Timing summary (sec):

 STEP                 CPU(USER)    SYS     CPU(TOT)    WALL
 Transformation          0.01      0.00      0.01      0.01
 CCSD iterations         0.01      0.01      0.02      0.02

 Program statistics:

 Available memory in ccsd:               999998800
 Min. memory needed in ccsd:                  5661
 Max. memory used in ccsd:                    6126
 Max. memory used in cckext:                 38485 (13 integral passes)



 **********************************************************************************************************************************
 DATASETS  * FILE   NREC   LENGTH (MB)   RECORD NAMES
              1      20       19.28       500      610      700      900      950      970     1000      129      960     1100   
                                          VAR    BASINP    GEOM    SYMINP    ZMAT    AOBASIS   BASIS     P2S    ABASIS      S 
                                         1400     1410     1200     1210     1080     1600     1650     1700     2100     1380   
                                           T        V       H0       H01     AOSYM     SMH    MOLCAS    OPER      RHF     JKOP   

              2       5        0.41       700     1000      520     2100     5600   
                                         GEOM     BASIS   MCVARS     RHF     GINFO   

 PROGRAMS   *        TOTAL   CCSD(T)   CCSD(T)       RHF       INT
 CPU TIMES  *         1.49      0.05      0.05      0.01      0.22
 REAL TIME  *         3.17 SEC
 DISK USED  *        72.01 MB      
 SF USED    *         0.16 MB      
 GA USED    *         0.00 MB       (max)       0.00 MB       (current)
 **********************************************************************************************************************************
 Starting task   3   Incrementing displacement  2 by  1.   CPU=    0.63 sec, Elapsed=    0.64 sec


 Recomputing integrals since geometry changed

1PROGRAM * SEWARD (Integral evaluation for generally contracted gaussian basis sets)     Author: Roland Lindh, 1990

 Geometry written to block  1 of record 700


 Point group  C2v 



 ATOMIC COORDINATES

 NR  ATOM    CHARGE       X              Y              Z

   1  O       8.00    0.000000000   -0.028571170    0.000000000
   2  H       1.00    0.000000000    1.014234164   -1.475129846
   3  H       1.00    0.000000000    1.014234164    1.475129846

 Bond lengths in Bohr (Angstrom)

 1-2  1.806502429  1-3  1.806502429
     ( 0.955959917)     ( 0.955959917)

 Bond angles

  2-1-3  109.48515197

 NUCLEAR CHARGE:                   10
 NUMBER OF PRIMITIVE AOS:          41
 NUMBER OF SYMMETRY AOS:           40
 NUMBER OF CONTRACTIONS:           24   (  11A1  +   4B1  +   7B2  +   2A2  )
 NUMBER OF CORE ORBITALS:           1   (   1A1  +   0B1  +   0B2  +   0A2  )
 NUMBER OF VALENCE ORBITALS:        6   (   3A1  +   1B1  +   2B2  +   0A2  )


 NUCLEAR REPULSION ENERGY    9.19584692

 Eigenvalues of metric

         1 0.181E-01 0.504E-01 0.161E+00 0.220E+00 0.499E+00 0.985E+00 0.101E+01 0.127E+01
         2 0.183E+00 0.525E+00 0.109E+01 0.224E+01
         3 0.430E-01 0.993E-01 0.171E+00 0.670E+00 0.106E+01 0.118E+01 0.257E+01
         4 0.610E+00 0.135E+01


 Contracted 2-electron integrals neglected if value below      1.0D-14
 AO integral compression algorithm  1   Integral accuracy      1.0D-14

     0.786 MB (compressed) written to integral file (100.0%)

     Node minimum: 0.262 MB, node maximum: 0.262 MB


 NUMBER OF SORTED TWO-ELECTRON INTEGRALS:       4533.     BUFFER LENGTH:  32768
 NUMBER OF SEGMENTS:   1  SEGMENT LENGTH:       4533      RECORD LENGTH: 524288

 Memory used in sort:       0.56 MW

 SORT1 READ       19290. AND WROTE        4192. INTEGRALS IN      1 RECORDS. CPU TIME:     0.00 SEC, REAL TIME:     0.01 SEC
 SORT2 READ       12657. AND WROTE       13826. INTEGRALS IN      3 RECORDS. CPU TIME:     0.00 SEC, REAL TIME:     0.00 SEC

 Node minimum:        4366.  Node maximum:        4927. integrals

 OPERATOR DM      FOR CENTER  0  COORDINATES:    0.000000    0.000000    0.000000
1PROGRAM * RHF-SCF (CLOSED SHELL)       Authors: W. Meyer, H.-J. Werner


 NUMBER OF ELECTRONS:       5+    5-
 CONVERGENCE THRESHOLDS:    1.00E-10 (Density)    1.00E-11 (Energy)
 MAX. NUMBER OF ITERATIONS:       60
 INTERPOLATION TYPE:            DIIS
 INTERPOLATION STEPS:              2 (START)      1 (STEP)
 LEVEL SHIFTS:                  0.00 (CLOSED)  0.00 (OPEN) 

 Number of closed-shell orbitals:    5 (   3   1   1   0 )


 Molecular orbitals read from record     2100.2  Type=RHF/CANONICAL (state 1.1)

 Molecular orbital dump at record        2100.1

 ITERATION    DDIFF          GRAD             ENERGY        2-EL.EN.            DIPOLE MOMENTS         DIIS   ORB.
    1      0.000D+00      0.000D+00       -76.02611023     75.871160    0.00000    0.77709    0.00000    0    start
    2      0.000D+00      0.685D-03       -76.02612693     75.899622    0.00000    0.77674    0.00000    1    diag
    3      0.193D-02      0.201D-03       -76.02612824     75.886876    0.00000    0.77692    0.00000    2    diag
    4      0.458D-03      0.812D-04       -76.02612849     75.892904    0.00000    0.77755    0.00000    3    diag
    5      0.135D-03      0.194D-04       -76.02612852     75.892368    0.00000    0.77769    0.00000    4    diag
    6      0.437D-04      0.478D-05       -76.02612852     75.892392    0.00000    0.77776    0.00000    5    diag
    7      0.146D-04      0.896D-06       -76.02612852     75.892389    0.00000    0.77777    0.00000    6    diag
    8      0.267D-05      0.120D-06       -76.02612852     75.892390    0.00000    0.77777    0.00000    7    orth
    9      0.322D-06      0.168D-07       -76.02612852     75.892390    0.00000    0.77777    0.00000    8    diag
   10      0.471D-07      0.176D-08       -76.02612852     75.892390    0.00000    0.77777    0.00000    9    diag
   11      0.494D-08      0.254D-09       -76.02612852     75.892390    0.00000    0.77777    0.00000    9    diag
   12      0.703D-09      0.274D-10       -76.02612852     75.892390    0.00000    0.77777    0.00000    9    diag
   13      0.672D-10      0.278D-11       -76.02612852     75.892390    0.00000    0.77777    0.00000    0    orth

 Final occupancy:   3   1   1   0

 !RHF STATE 1.1 Energy                -76.026128517964
 Nuclear energy                         9.19584692
 One-electron energy                 -123.16817060
 Two-electron energy                   37.94619516
 Virial quotient                       -1.00052455
 !RHF STATE 1.1 Dipole moment           0.00000000     0.77777047     0.00000000
 Dipole moment /Debye                   0.00000000     1.97676586     0.00000000

 Orbital energies:

         1.1          2.1          3.1          4.1          5.1
    -20.547344    -1.333401    -0.556659     0.186637     0.832158

         1.2          2.2          3.2
     -0.491380     1.201742     1.701621

         1.3          2.3          3.3
     -0.709106     0.255835     0.808495

         1.4          2.4
      1.461267     3.359487

 HOMO      1.2    -0.491380 =     -13.3711eV
 LUMO      4.1     0.186637 =       5.0787eV
 LUMO-HOMO         0.678017 =      18.4498eV


 **********************************************************************************************************************************
 DATASETS  * FILE   NREC   LENGTH (MB)   RECORD NAMES
              1      19       19.22       500      610      700      900      950      970     1000      129      960     1100   
                                          VAR    BASINP    GEOM    SYMINP    ZMAT    AOBASIS   BASIS     P2S    ABASIS      S 
                                         1400     1410     1200     1210     1080     1600     1650     1700     2100   
                                           T        V       H0       H01     AOSYM     SMH    MOLCAS    OPER      RHF  

              2       5        0.41       700     1000      520     2100     5600   
                                         GEOM     BASIS   MCVARS     RHF     GINFO   

 PROGRAMS   *        TOTAL       RHF   CCSD(T)       RHF       INT
 CPU TIMES  *         1.67      0.18      0.05      0.01      0.22
 REAL TIME  *         3.38 SEC
 DISK USED  *        72.01 MB      
 SF USED    *         0.16 MB      
 GA USED    *         0.00 MB       (max)       0.00 MB       (current)
 **********************************************************************************************************************************


1PROGRAM * CCSD (Closed-shell coupled cluster)     Authors: C. Hampel, H.-J. Werner, 1991, M. Deegan, P.J. Knowles, 1992


 Convergence thresholds:  THRVAR = 1.00D-14  THRDEN = 1.00D-10

 CCSD(T)     terms to be evaluated (factor= 1.000)


 Number of core orbitals:           1 (   1   0   0   0 )
 Number of closed-shell orbitals:   4 (   2   1   1   0 )
 Number of external orbitals:      19 (   8   3   6   2 )

 Molecular orbitals read from record     2100.1  Type=RHF/CANONICAL (state 1.1)

 Number of N-1 electron functions:               4
 Number of N-2 electron functions:              10
 Number of singly external CSFs:                25
 Number of doubly external CSFs:               805
 Total number of CSFs:                         831

 Length of J-op  integral file:               0.00 MB
 Length of K-op  integral file:               0.01 MB
 Length of 3-ext integral record:             0.00 MB

 Memory could be reduced to 0.31 Mwords without degradation in triples

 Integral transformation finished. Total CPU:   0.00 sec, npass=  1  Memory used:   0.07 MW

 Reference energy:                    -76.02612852

 MP2 singlet pair energy:              -0.12522411
 MP2 triplet pair energy:              -0.07587596
 MP2 correlation energy:               -0.20110007
 MP2 total energy:                    -76.22722859

 SCS-MP2 correlation energy:           -0.19748064   (PS=  1.200000  PT=  0.333333)
 SCS-MP2 total energy:                -76.22360916

 ITER.      SQ.NORM     CORR.ENERGY   TOTAL ENERGY   ENERGY CHANGE        DEN1      VAR(S)    VAR(P)  DIIS     TIME  TIME/IT
   1      1.05249517    -0.20971191   -76.23584042    -0.00861183    -0.00509373  0.26D-03  0.66D-03  1  1     0.00     0.00
   2      1.05558679    -0.21063294   -76.23676146    -0.00092103    -0.00383210  0.52D-05  0.54D-04  2  2     0.01     0.00
   3      1.05633637    -0.21070547   -76.23683399    -0.00007253    -0.00057422  0.19D-05  0.22D-05  3  3     0.01     0.00
   4      1.05650284    -0.21070796   -76.23683648    -0.00000249    -0.00009158  0.13D-06  0.12D-06  4  4     0.01     0.00
   5      1.05653479    -0.21070660   -76.23683512     0.00000137    -0.00001482  0.35D-07  0.74D-08  5  5     0.01     0.00
   6      1.05653953    -0.21070657   -76.23683508     0.00000003     0.00000038  0.45D-08  0.83D-09  6  6     0.01     0.00
   7      1.05654231    -0.21070651   -76.23683502     0.00000006    -0.00000027  0.15D-09  0.69D-10  6  1     0.02     0.00
   8      1.05654270    -0.21070646   -76.23683498     0.00000005     0.00000005  0.36D-11  0.45D-11  6  2     0.02     0.00
   9      1.05654280    -0.21070645   -76.23683497     0.00000001    -0.00000005  0.74D-13  0.27D-12  6  3     0.02     0.00
  10      1.05654283    -0.21070645   -76.23683497     0.00000000    -0.00000002  0.18D-14  0.76D-14  6  4     0.02     0.00
  11      1.05654284    -0.21070645   -76.23683497     0.00000000    -0.00000000  0.17D-15  0.37D-15  6  5     0.02     0.00
  12      1.05654284    -0.21070645   -76.23683497     0.00000000    -0.00000000  0.67D-17  0.16D-16  6  2     0.02     0.00
  13      1.05654284    -0.21070645   -76.23683497     0.00000000    -0.00000000  0.73D-18  0.70D-18  6  6     0.02     0.00

 Norm of t1 vector:      0.02321932      S-energy:    -0.00000000      T1 diagnostic:  0.00580483
                                                                       D1 diagnostic:  0.01118628

 Doubles amplitudes (print threshold =  0.500E-01):

         I         J         SYM. A    SYM. B    A         B      T(IJ, AB)

         3         3         2         2         1         1     -0.05142716

 Total CPU time for triples:      0.00 sec


 RESULTS
 =======

  Reference energy                    -76.026128517964
  CCSD singlet pair energy             -0.142860811094
  CCSD triplet pair energy             -0.067845636399
  CCSD correlation energy              -0.210706447504

  Triples (T) contribution             -0.002981452047
  Total correlation energy             -0.213687899552

  CCSD total energy                   -76.236834965468
  CCSD[T] energy                      -76.239898984843
  CCSD-T energy                       -76.239763394688
 !CCSD(T) total energy                -76.239816417516

 Timing summary (sec):

 STEP                 CPU(USER)    SYS     CPU(TOT)    WALL
 CCSD iterations         0.02      0.00      0.02      0.02

 Program statistics:

 Available memory in ccsd:               999998800
 Min. memory needed in ccsd:                  5661
 Max. memory used in ccsd:                    6126
 Max. memory used in cckext:                 38485 (13 integral passes)



 **********************************************************************************************************************************
 DATASETS  * FILE   NREC   LENGTH (MB)   RECORD NAMES
              1      20       19.28       500      610      700      900      950      970     1000      129      960     1100   
                                          VAR    BASINP    GEOM    SYMINP    ZMAT    AOBASIS   BASIS     P2S    ABASIS      S 
                                         1400     1410     1200     1210     1080     1600     1650     1700     2100     1380   
                                           T        V       H0       H01     AOSYM     SMH    MOLCAS    OPER      RHF     JKOP   

              2       5        0.41       700     1000      520     2100     5600   
                                         GEOM     BASIS   MCVARS     RHF     GINFO   

 PROGRAMS   *        TOTAL   CCSD(T)   CCSD(T)       RHF       INT
 CPU TIMES  *         1.72      0.05      0.05      0.01      0.22
 REAL TIME  *         3.44 SEC
 DISK USED  *        72.01 MB      
 SF USED    *         0.16 MB      
 GA USED    *         0.00 MB       (max)       0.00 MB       (current)
 **********************************************************************************************************************************
 Starting task   4   Incrementing displacement  2 by -1.   CPU=    0.90 sec, Elapsed=    0.91 sec


 Recomputing integrals since geometry changed

1PROGRAM * SEWARD (Integral evaluation for generally contracted gaussian basis sets)     Author: Roland Lindh, 1990

 Geometry written to block  1 of record 700


 Point group  C2v 



 ATOMIC COORDINATES

 NR  ATOM    CHARGE       X              Y              Z

   1  O       8.00    0.000000000   -0.040970751    0.000000000
   2  H       1.00    0.000000000    1.020433954   -1.484332443
   3  H       1.00    0.000000000    1.020433954    1.484332443

 Bond lengths in Bohr (Angstrom)

 1-2  1.824780192  1-3  1.824780192
     ( 0.965632093)     ( 0.965632093)

 Bond angles

  2-1-3  108.86499770

 NUCLEAR CHARGE:                   10
 NUMBER OF PRIMITIVE AOS:          41
 NUMBER OF SYMMETRY AOS:           40
 NUMBER OF CONTRACTIONS:           24   (  11A1  +   4B1  +   7B2  +   2A2  )
 NUMBER OF CORE ORBITALS:           1   (   1A1  +   0B1  +   0B2  +   0A2  )
 NUMBER OF VALENCE ORBITALS:        6   (   3A1  +   1B1  +   2B2  +   0A2  )


 NUCLEAR REPULSION ENERGY    9.10503111

 Eigenvalues of metric

         1 0.182E-01 0.518E-01 0.162E+00 0.221E+00 0.509E+00 0.986E+00 0.101E+01 0.127E+01
         2 0.183E+00 0.534E+00 0.109E+01 0.223E+01
         3 0.443E-01 0.999E-01 0.173E+00 0.678E+00 0.105E+01 0.119E+01 0.257E+01
         4 0.619E+00 0.134E+01


 Contracted 2-electron integrals neglected if value below      1.0D-14
 AO integral compression algorithm  1   Integral accuracy      1.0D-14

     0.786 MB (compressed) written to integral file (100.0%)

     Node minimum: 0.262 MB, node maximum: 0.262 MB


 NUMBER OF SORTED TWO-ELECTRON INTEGRALS:       4533.     BUFFER LENGTH:  32768
 NUMBER OF SEGMENTS:   1  SEGMENT LENGTH:       4533      RECORD LENGTH: 524288

 Memory used in sort:       0.56 MW

 SORT1 READ       19290. AND WROTE        4192. INTEGRALS IN      1 RECORDS. CPU TIME:     0.00 SEC, REAL TIME:     0.01 SEC
 SORT2 READ       12657. AND WROTE       13826. INTEGRALS IN      3 RECORDS. CPU TIME:     0.01 SEC, REAL TIME:     0.00 SEC

 Node minimum:        4366.  Node maximum:        4927. integrals

 OPERATOR DM      FOR CENTER  0  COORDINATES:    0.000000    0.000000    0.000000
1PROGRAM * RHF-SCF (CLOSED SHELL)       Authors: W. Meyer, H.-J. Werner


 NUMBER OF ELECTRONS:       5+    5-
 CONVERGENCE THRESHOLDS:    1.00E-10 (Density)    1.00E-11 (Energy)
 MAX. NUMBER OF ITERATIONS:       60
 INTERPOLATION TYPE:            DIIS
 INTERPOLATION STEPS:              2 (START)      1 (STEP)
 LEVEL SHIFTS:                  0.00 (CLOSED)  0.00 (OPEN) 

 Number of closed-shell orbitals:    5 (   3   1   1   0 )


 Molecular orbitals read from record     2100.2  Type=RHF/CANONICAL (state 1.1)

 Molecular orbital dump at record        2100.1

 ITERATION    DDIFF          GRAD             ENERGY        2-EL.EN.            DIPOLE MOMENTS         DIIS   ORB.
    1      0.000D+00      0.000D+00       -76.02560722     75.769662    0.00000    0.78591    0.00000    0    start
    2      0.000D+00      0.681D-03       -76.02562381     75.741508    0.00000    0.78624    0.00000    1    diag
    3      0.192D-02      0.200D-03       -76.02562511     75.754180    0.00000    0.78607    0.00000    2    diag
    4      0.456D-03      0.812D-04       -76.02562537     75.748096    0.00000    0.78542    0.00000    3    diag
    5      0.135D-03      0.197D-04       -76.02562539     75.748646    0.00000    0.78528    0.00000    4    diag
    6      0.444D-04      0.487D-05       -76.02562539     75.748622    0.00000    0.78521    0.00000    5    diag
    7      0.150D-04      0.922D-06       -76.02562539     75.748624    0.00000    0.78520    0.00000    6    diag
    8      0.277D-05      0.125D-06       -76.02562539     75.748623    0.00000    0.78520    0.00000    7    orth
    9      0.337D-06      0.175D-07       -76.02562539     75.748623    0.00000    0.78520    0.00000    8    diag
   10      0.496D-07      0.185D-08       -76.02562539     75.748623    0.00000    0.78520    0.00000    9    diag
   11      0.514D-08      0.264D-09       -76.02562539     75.748623    0.00000    0.78520    0.00000    9    diag
   12      0.727D-09      0.279D-10       -76.02562539     75.748623    0.00000    0.78520    0.00000    9    diag
   13      0.682D-10      0.280D-11       -76.02562539     75.748623    0.00000    0.78520    0.00000    0    orth

 Final occupancy:   3   1   1   0

 !RHF STATE 1.1 Energy                -76.025625393358
 Nuclear energy                         9.10503111
 One-electron energy                 -123.00496811
 Two-electron energy                   37.87431161
 Virial quotient                       -1.00099100
 !RHF STATE 1.1 Dipole moment           0.00000000     0.78520020     0.00000000
 Dipole moment /Debye                   0.00000000     1.99564912     0.00000000

 Orbital energies:

         1.1          2.1          3.1          4.1          5.1
    -20.549366    -1.329067    -0.556164     0.184832     0.826385

         1.2          2.2          3.2
     -0.490897     1.201485     1.696102

         1.3          2.3          3.3
     -0.702678     0.254551     0.798987

         1.4          2.4
      1.460804     3.347281

 HOMO      1.2    -0.490897 =     -13.3580eV
 LUMO      4.1     0.184832 =       5.0295eV
 LUMO-HOMO         0.675728 =      18.3875eV


 **********************************************************************************************************************************
 DATASETS  * FILE   NREC   LENGTH (MB)   RECORD NAMES
              1      19       19.22       500      610      700      900      950      970     1000      129      960     1100   
                                          VAR    BASINP    GEOM    SYMINP    ZMAT    AOBASIS   BASIS     P2S    ABASIS      S 
                                         1400     1410     1200     1210     1080     1600     1650     1700     2100   
                                           T        V       H0       H01     AOSYM     SMH    MOLCAS    OPER      RHF  

              2       5        0.41       700     1000      520     2100     5600   
                                         GEOM     BASIS   MCVARS     RHF     GINFO   

 PROGRAMS   *        TOTAL       RHF   CCSD(T)       RHF       INT
 CPU TIMES  *         1.90      0.18      0.05      0.01      0.22
 REAL TIME  *         3.65 SEC
 DISK USED  *        72.01 MB      
 SF USED    *         0.16 MB      
 GA USED    *         0.00 MB       (max)       0.00 MB       (current)
 **********************************************************************************************************************************


1PROGRAM * CCSD (Closed-shell coupled cluster)     Authors: C. Hampel, H.-J. Werner, 1991, M. Deegan, P.J. Knowles, 1992


 Convergence thresholds:  THRVAR = 1.00D-14  THRDEN = 1.00D-10

 CCSD(T)     terms to be evaluated (factor= 1.000)


 Number of core orbitals:           1 (   1   0   0   0 )
 Number of closed-shell orbitals:   4 (   2   1   1   0 )
 Number of external orbitals:      19 (   8   3   6   2 )

 Molecular orbitals read from record     2100.1  Type=RHF/CANONICAL (state 1.1)

 Number of N-1 electron functions:               4
 Number of N-2 electron functions:              10
 Number of singly external CSFs:                25
 Number of doubly external CSFs:               805
 Total number of CSFs:                         831

 Length of J-op  integral file:               0.00 MB
 Length of K-op  integral file:               0.01 MB
 Length of 3-ext integral record:             0.00 MB

 Memory could be reduced to 0.31 Mwords without degradation in triples

 Integral transformation finished. Total CPU:   0.01 sec, npass=  1  Memory used:   0.07 MW

 Reference energy:                    -76.02562539

 MP2 singlet pair energy:              -0.12576739
 MP2 triplet pair energy:              -0.07605761
 MP2 correlation energy:               -0.20182500
 MP2 total energy:                    -76.22745040

 SCS-MP2 correlation energy:           -0.19824561   (PS=  1.200000  PT=  0.333333)
 SCS-MP2 total energy:                -76.22387100

 ITER.      SQ.NORM     CORR.ENERGY   TOTAL ENERGY   ENERGY CHANGE        DEN1      VAR(S)    VAR(P)  DIIS     TIME  TIME/IT
   1      1.05305262    -0.21040912   -76.23603451    -0.00858412    -0.00499036  0.27D-03  0.68D-03  1  1     0.01     0.00
   2      1.05625282    -0.21135805   -76.23698344    -0.00094893    -0.00390634  0.56D-05  0.57D-04  2  2     0.01     0.00
   3      1.05705072    -0.21143441   -76.23705980    -0.00007636    -0.00060077  0.21D-05  0.23D-05  3  3     0.01     0.00
   4      1.05723129    -0.21143739   -76.23706279    -0.00000299    -0.00009732  0.15D-06  0.14D-06  4  4     0.01     0.00
   5      1.05726703    -0.21143595   -76.23706134     0.00000144    -0.00001602  0.41D-07  0.85D-08  5  5     0.02     0.00
   6      1.05727262    -0.21143591   -76.23706130     0.00000004     0.00000036  0.50D-08  0.96D-09  6  6     0.02     0.00
   7      1.05727573    -0.21143584   -76.23706123     0.00000007    -0.00000030  0.17D-09  0.80D-10  6  1     0.02     0.00
   8      1.05727615    -0.21143579   -76.23706118     0.00000005     0.00000006  0.42D-11  0.54D-11  6  2     0.02     0.00
   9      1.05727626    -0.21143578   -76.23706117     0.00000001    -0.00000006  0.85D-13  0.33D-12  6  3     0.02     0.00
  10      1.05727630    -0.21143578   -76.23706117     0.00000000    -0.00000002  0.23D-14  0.94D-14  6  4     0.02     0.00
  11      1.05727630    -0.21143578   -76.23706117     0.00000000    -0.00000000  0.21D-15  0.38D-15  6  6     0.02     0.00
  12      1.05727630    -0.21143578   -76.23706117     0.00000000    -0.00000000  0.73D-17  0.13D-16  6  5     0.03     0.00
  13      1.05727630    -0.21143578   -76.23706117     0.00000000    -0.00000000  0.15D-17  0.98D-18  6  1     0.03     0.00

 Norm of t1 vector:      0.02387560      S-energy:    -0.00000000      T1 diagnostic:  0.00596890
                                                                       D1 diagnostic:  0.01159260

 Doubles amplitudes (print threshold =  0.500E-01):

         I         J         SYM. A    SYM. B    A         B      T(IJ, AB)

         3         3         2         2         1         1     -0.05147030

 Total CPU time for triples:      0.00 sec


 RESULTS
 =======

  Reference energy                    -76.025625393358
  CCSD singlet pair energy             -0.143578890930
  CCSD triplet pair energy             -0.067856887187
  CCSD correlation energy              -0.211435778130

  Triples (T) contribution             -0.003031264706
  Total correlation energy             -0.214467042835

  CCSD total energy                   -76.237061171487
  CCSD[T] energy                      -76.240177812117
  CCSD-T energy                       -76.240037835856
 !CCSD(T) total energy                -76.240092436193

 Timing summary (sec):

 STEP                 CPU(USER)    SYS     CPU(TOT)    WALL
 Transformation          0.01      0.01      0.02      0.01
 CCSD iterations         0.02      0.00      0.02      0.02

 Program statistics:

 Available memory in ccsd:               999998800
 Min. memory needed in ccsd:                  5661
 Max. memory used in ccsd:                    6126
 Max. memory used in cckext:                 38485 (13 integral passes)



 **********************************************************************************************************************************
 DATASETS  * FILE   NREC   LENGTH (MB)   RECORD NAMES
              1      20       19.28       500      610      700      900      950      970     1000      129      960     1100   
                                          VAR    BASINP    GEOM    SYMINP    ZMAT    AOBASIS   BASIS     P2S    ABASIS      S 
                                         1400     1410     1200     1210     1080     1600     1650     1700     2100     1380   
                                           T        V       H0       H01     AOSYM     SMH    MOLCAS    OPER      RHF     JKOP   

              2       5        0.41       700     1000      520     2100     5600   
                                         GEOM     BASIS   MCVARS     RHF     GINFO   

 PROGRAMS   *        TOTAL   CCSD(T)   CCSD(T)       RHF       INT
 CPU TIMES  *         1.95      0.05      0.05      0.01      0.22
 REAL TIME  *         3.71 SEC
 DISK USED  *        72.01 MB      
 SF USED    *         0.16 MB      
 GA USED    *         0.00 MB       (max)       0.00 MB       (current)
 **********************************************************************************************************************************
 Numerical gradient completed. CPU-time:     1.17 sec, Elapsed:     1.18 sec

 Numerical gradient for CCSD(T)

 Total Energy           -76.23999995  Dipole moments:    0.000000    0.000000    0.000000

 Atom          dE/dx               dE/dy               dE/dz                  d2E/dx2             d2E/dy2             d2E/dz2
   1         0.000000000         0.019779129        -0.000000000            0.000000000         0.000000000         0.000000000
   2         0.000000000        -0.009889564        -0.004991019            0.000000000         0.000000000         0.000000000
   3         0.000000000        -0.009889564         0.004991019            0.000000000         0.000000000         0.000000000
 Reading points  1 to  1 from record 700.2,  wavefunction type=CCSD(T)         

 Making model hessian for cartesian coordinates
 No hessian update for point  1

 Entering Rational Function Geometry Optimization

 Optimization point  1

 Variable                      Last           Current        Next           Gradient       Hessian
 E(CCSD(T)) / Hartree        0.00000000   -76.23999995   -76.24082265
 GX1 / ANGSTROM              0.00000000     0.00000000     0.00000000     0.00000000    -0.00000000
 GY1 / ANGSTROM              0.00000000    -0.01840000    -0.04026800     0.03737714     0.00000000
 GZ1 / ANGSTROM              0.00000000     0.00000000     0.00000000     0.00000000     0.00000000
 GX2 / ANGSTROM              0.00000000     0.00000000     0.00000000     0.00000000     0.00000000
 GY2 / ANGSTROM              0.00000000     0.53835000     0.54928400    -0.01868857     0.00000000
 GZ2 / ANGSTROM              0.00000000    -0.78304000    -0.76132315    -0.00943166     0.00000000
 GX3 / ANGSTROM              0.00000000     0.00000000     0.00000000     0.00000000     0.86661469
 GY3 / ANGSTROM              0.00000000     0.53835000     0.54928400    -0.01868857     4.52204440
 GZ3 / ANGSTROM              0.00000000     0.78304000     0.76132315     0.00943166     5.80833009
 Convergence:                0.00000000  (line search)     0.07700622     0.02523175  (total)

 Geometry written to block  2 of record 700


 Recomputing integrals since geometry changed

1PROGRAM * SEWARD (Integral evaluation for generally contracted gaussian basis sets)     Author: Roland Lindh, 1990

 Geometry written to block  2 of record 700


 Point group  C2v 



 ATOMIC COORDINATES

 NR  ATOM    CHARGE       X              Y              Z

   1  O       8.00    0.000000000   -0.076095500    0.000000000
   2  H       1.00    0.000000000    1.037996329   -1.438692247
   3  H       1.00    0.000000000    1.037996329    1.438692247

 Bond lengths in Bohr (Angstrom)

 1-2  1.819625232  1-3  1.819625232
     ( 0.962904205)     ( 0.962904205)

 Bond angles

  2-1-3  104.49316468

 NUCLEAR CHARGE:                   10
 NUMBER OF PRIMITIVE AOS:          41
 NUMBER OF SYMMETRY AOS:           40
 NUMBER OF CONTRACTIONS:           24   (  11A1  +   4B1  +   7B2  +   2A2  )
 NUMBER OF CORE ORBITALS:           1   (   1A1  +   0B1  +   0B2  +   0A2  )
 NUMBER OF VALENCE ORBITALS:        6   (   3A1  +   1B1  +   2B2  +   0A2  )


 NUCLEAR REPULSION ENERGY    9.14055726

 Eigenvalues of metric

         1 0.177E-01 0.513E-01 0.160E+00 0.223E+00 0.516E+00 0.986E+00 0.101E+01 0.128E+01
         2 0.183E+00 0.527E+00 0.110E+01 0.224E+01
         3 0.451E-01 0.990E-01 0.172E+00 0.671E+00 0.103E+01 0.117E+01 0.255E+01
         4 0.623E+00 0.133E+01


 Contracted 2-electron integrals neglected if value below      1.0D-14
 AO integral compression algorithm  1   Integral accuracy      1.0D-14

     0.786 MB (compressed) written to integral file (100.0%)

     Node minimum: 0.262 MB, node maximum: 0.262 MB


 NUMBER OF SORTED TWO-ELECTRON INTEGRALS:       4533.     BUFFER LENGTH:  32768
 NUMBER OF SEGMENTS:   1  SEGMENT LENGTH:       4533      RECORD LENGTH: 524288

 Memory used in sort:       0.56 MW

 SORT1 READ       19290. AND WROTE        4192. INTEGRALS IN      1 RECORDS. CPU TIME:     0.01 SEC, REAL TIME:     0.01 SEC
 SORT2 READ       12657. AND WROTE       13826. INTEGRALS IN      3 RECORDS. CPU TIME:     0.00 SEC, REAL TIME:     0.00 SEC

 Node minimum:        4366.  Node maximum:        4927. integrals

 OPERATOR DM      FOR CENTER  0  COORDINATES:    0.000000    0.000000    0.000000
1PROGRAM * RHF-SCF (CLOSED SHELL)       Authors: W. Meyer, H.-J. Werner


 NUMBER OF ELECTRONS:       5+    5-
 CONVERGENCE THRESHOLDS:    1.00E-10 (Density)    1.00E-11 (Energy)
 MAX. NUMBER OF ITERATIONS:       60
 INTERPOLATION TYPE:            DIIS
 INTERPOLATION STEPS:              2 (START)      1 (STEP)
 LEVEL SHIFTS:                  0.00 (CLOSED)  0.00 (OPEN) 

 Number of closed-shell orbitals:    5 (   3   1   1   0 )


 Molecular orbitals read from record     2100.2  Type=RHF/CANONICAL (state 1.1)

 Molecular orbital dump at record        2100.2

 ITERATION    DDIFF          GRAD             ENERGY        2-EL.EN.            DIPOLE MOMENTS         DIIS   ORB.
    1      0.000D+00      0.000D+00       -76.02609177     75.799416    0.00000    0.81044    0.00000    0    start
    2      0.000D+00      0.308D-02       -76.02644826     75.769160    0.00000    0.81359    0.00000    1    diag
    3      0.851D-02      0.660D-03       -76.02646884     75.783665    0.00000    0.81305    0.00000    2    diag
    4      0.225D-02      0.138D-03       -76.02646964     75.772254    0.00000    0.81176    0.00000    3    diag
    5      0.242D-03      0.608D-04       -76.02646980     75.774798    0.00000    0.81145    0.00000    4    diag
    6      0.121D-03      0.106D-04       -76.02646981     75.774704    0.00000    0.81128    0.00000    5    diag
    7      0.319D-04      0.175D-05       -76.02646981     75.774710    0.00000    0.81127    0.00000    6    diag
    8      0.489D-05      0.416D-06       -76.02646981     75.774708    0.00000    0.81127    0.00000    7    orth
    9      0.116D-05      0.655D-07       -76.02646981     75.774708    0.00000    0.81127    0.00000    8    diag
   10      0.188D-06      0.769D-08       -76.02646981     75.774708    0.00000    0.81127    0.00000    9    diag
   11      0.197D-07      0.107D-08       -76.02646981     75.774708    0.00000    0.81127    0.00000    9    diag
   12      0.294D-08      0.956D-10       -76.02646981     75.774708    0.00000    0.81127    0.00000    9    diag
   13      0.230D-09      0.891D-11       -76.02646981     75.774708    0.00000    0.81127    0.00000    9    diag
   14      0.211D-10      0.108D-11       -76.02646981     75.774708    0.00000    0.81127    0.00000    0    orth

 Final occupancy:   3   1   1   0

 !RHF STATE 1.1 Energy                -76.026469812999
 Nuclear energy                         9.14055726
 One-electron energy                 -123.05438105
 Two-electron energy                   37.88735398
 Virial quotient                       -1.00078129
 !RHF STATE 1.1 Dipole moment           0.00000000     0.81126780     0.00000000
 Dipole moment /Debye                   0.00000000     2.06190203     0.00000000

 Orbital energies:

         1.1          2.1          3.1          4.1          5.1
    -20.551433    -1.333849    -0.565566     0.184608     0.849110

         1.2          2.2          3.2
     -0.492751     1.200306     1.673507

         1.3          2.3          3.3
     -0.696238     0.255418     0.785212

         1.4          2.4
      1.474863     3.333294

 HOMO      1.2    -0.492751 =     -13.4084eV
 LUMO      4.1     0.184608 =       5.0234eV
 LUMO-HOMO         0.677358 =      18.4319eV


 **********************************************************************************************************************************
 DATASETS  * FILE   NREC   LENGTH (MB)   RECORD NAMES
              1      18       19.10       500      610      700      900      950      970     1000      129      960     1100   
                                          VAR    BASINP    GEOM    SYMINP    ZMAT    AOBASIS   BASIS     P2S    ABASIS      S 
                                         1400     1410     1200     1210     1080     1600     1650     1700   
                                           T        V       H0       H01     AOSYM     SMH    MOLCAS    OPER   

              2       5        0.41       700     1000      520     2100     5600   
                                         GEOM     BASIS   MCVARS     RHF     GINFO   

 PROGRAMS   *        TOTAL       RHF   CCSD(T)       RHF       INT
 CPU TIMES  *         2.13      0.17      0.05      0.01      0.22
 REAL TIME  *         3.92 SEC
 DISK USED  *        72.01 MB      
 SF USED    *         0.16 MB      
 GA USED    *         0.00 MB       (max)       0.00 MB       (current)
 **********************************************************************************************************************************


1PROGRAM * CCSD (Closed-shell coupled cluster)     Authors: C. Hampel, H.-J. Werner, 1991, M. Deegan, P.J. Knowles, 1992


 Convergence thresholds:  THRVAR = 1.00D-14  THRDEN = 1.00D-10

 CCSD(T)     terms to be evaluated (factor= 1.000)


 Number of core orbitals:           1 (   1   0   0   0 )
 Number of closed-shell orbitals:   4 (   2   1   1   0 )
 Number of external orbitals:      19 (   8   3   6   2 )

 Molecular orbitals read from record     2100.2  Type=RHF/CANONICAL (state 1.1)

 Number of N-1 electron functions:               4
 Number of N-2 electron functions:              10
 Number of singly external CSFs:                25
 Number of doubly external CSFs:               805
 Total number of CSFs:                         831

 Length of J-op  integral file:               0.00 MB
 Length of K-op  integral file:               0.01 MB
 Length of 3-ext integral record:             0.00 MB

 Memory could be reduced to 0.31 Mwords without degradation in triples

 Integral transformation finished. Total CPU:   0.00 sec, npass=  1  Memory used:   0.07 MW

 Reference energy:                    -76.02646981

 MP2 singlet pair energy:              -0.12586483
 MP2 triplet pair energy:              -0.07616406
 MP2 correlation energy:               -0.20202889
 MP2 total energy:                    -76.22849870

 SCS-MP2 correlation energy:           -0.19842877   (PS=  1.200000  PT=  0.333333)
 SCS-MP2 total energy:                -76.22489858

 ITER.      SQ.NORM     CORR.ENERGY   TOTAL ENERGY   ENERGY CHANGE        DEN1      VAR(S)    VAR(P)  DIIS     TIME  TIME/IT
   1      1.05308356    -0.21058311   -76.23705292    -0.00855422    -0.00495564  0.28D-03  0.68D-03  1  1     0.01     0.00
   2      1.05627295    -0.21152256   -76.23799237    -0.00093945    -0.00390290  0.53D-05  0.58D-04  2  2     0.01     0.00
   3      1.05706620    -0.21159787   -76.23806769    -0.00007532    -0.00059865  0.20D-05  0.23D-05  3  3     0.02     0.00
   4      1.05724559    -0.21160075   -76.23807056    -0.00000288    -0.00009753  0.13D-06  0.13D-06  4  4     0.02     0.00
[...]
  CCSD correlation energy              -0.212089610446

  Triples (T) contribution             -0.003103967208
  Total correlation energy             -0.215193577654

  CCSD total energy                   -76.238168082334
  CCSD[T] energy                      -76.241360771839
  CCSD-T energy                       -76.241215138795
 !CCSD(T) total energy                -76.241272049542

 Timing summary (sec):

 STEP                 CPU(USER)    SYS     CPU(TOT)    WALL
 CCSD iterations         0.03      0.01      0.04      0.03

 Program statistics:

 Available memory in ccsd:               999998686
 Min. memory needed in ccsd:                 17202
 Max. memory used in ccsd:                   18488
 Max. memory used in cckext:                 48698 (12 integral passes)



 **********************************************************************************************************************************
 DATASETS  * FILE   NREC   LENGTH (MB)   RECORD NAMES
              1      21       19.66       500      610      700      701      900      950      970     1001      129      960   
                                          VAR    BASINP    GEOM     GEOM    SYMINP    ZMAT    AOBASIS   BASIS     P2S    ABASIS    
                                         1100     1400     1410     1200     1210     1080     1600     1650     1700     2100   
                                           S        T        V       H0       H01     AOSYM     SMH    MOLCAS    OPER      RHF  
                                         1380   
                                         JKOP   

              2       8        0.64       700     1000      520     2100     5600     5500      701     1001   
                                         GEOM     BASIS   MCVARS     RHF     GINFO    HINFO    GEOM     BASIS   

 PROGRAMS   *        TOTAL   CCSD(T)      OPTG   CCSD(T)       RHF       INT
 CPU TIMES  *        13.29      0.05      6.65      0.05      0.01      0.22
 REAL TIME  *        18.30 SEC
 DISK USED  *        74.32 MB      
 SF USED    *         0.54 MB      
 GA USED    *         0.00 MB       (max)       0.00 MB       (current)
 **********************************************************************************************************************************

 Numerical CCSD(T) hessian completed. CPU-time:     7.36 sec, Elapsed:     8.86 sec

 CCSD(T) hessian saved to record  5300.2

 FREQUENCIES * CALCULATION OF HARMONIC VIBRATIONAL SPECTRA FOR CCSD(T)


 Permanent Dipole Moment [debye]
   1-  3    0.000000    0.000000    0.000000

 Dipole Moment Norm    0.0000000 [debye]

 Dipole Moment Derivatives [debye/ang]
                   1             2             3             4             5             6             7             8
         1     0.0000000     0.0000000     0.0000000     0.0000000     0.0000000     0.0000000     0.0000000     0.0000000
         2     0.0000000     0.0000000     0.0000000     0.0000000     0.0000000     0.0000000     0.0000000     0.0000000
         3     0.0000000     0.0000000     0.0000000     0.0000000     0.0000000     0.0000000     0.0000000     0.0000000
                   9
         1     0.0000000
         2     0.0000000
         3     0.0000000

 Projecting out rotations and translations

   Low Vibration      Wavenumber
        Nr             [1/cm] 
        1                0.00
        2                0.00
        3                0.00
        4                0.00
        5                0.00
        6                0.00

     Vibration        Wavenumber
        Nr             [1/cm] 
        1             1690.13
        2             3821.10
        3             3927.05

 FREQUENCIES * CALCULATION OF NORMAL MODES FOR CCSD(T)


 Atomic Coordinates

  Nr  Atom  Charge       X              Y              Z

   1   O     8.00    0.000000000   -0.100198791    0.000000000
   2   H     1.00    0.000000000    1.050047974   -1.418222570
   3   H     1.00    0.000000000    1.050047974    1.418222570

 Frequencies dumped to record   5400.2

 Gradient norm at reference geometry: 0.20997D-04

 Normal Modes

                              1 A1        2 A1        3 B2 
 Wavenumbers [cm-1]         1690.13     3821.10     3927.05
 Intensities [km/mol]          0.00        0.00        0.00
 Intensities [relative]        0.00        0.00        0.00
           GX1              0.00000     0.00000     0.00000
           GY1             -0.06719     0.04980    -0.00000
           GZ1             -0.00000    -0.00000    -0.06644
           GX2              0.00000     0.00000    -0.00000
           GY2              0.53325    -0.39521    -0.42770
           GZ2              0.41937     0.56585     0.52735
           GX3             -0.00000    -0.00000     0.00000
           GY3              0.53325    -0.39521     0.42770
           GZ3             -0.41937    -0.56585     0.52735


 Normal Modes of low/zero frequencies

                                  1           2           3           4           5
 Wavenumbers [cm-1]            0.00        0.00        0.00        0.00        0.00
 Intensities [km/mol]          0.00        0.00        0.00        0.00        0.00
 Intensities [relative]        0.00        0.00        0.00        0.00        0.00
           GX1              0.00000     0.00000     0.15682     0.19470     0.00000
           GY1              0.06502     0.20927     0.00000     0.00000    -0.02046
           GZ1              0.10276     0.05065     0.00000     0.00000    -0.02207
           GX2             -0.32602     0.22199    -0.54852     0.44180     0.55995
           GY2              0.41215     0.04231     0.00000     0.00000     0.31488
           GZ2              0.38430    -0.08476     0.00000     0.00000     0.24990
           GX3              0.32602    -0.22199    -0.54852     0.44180    -0.55995
           GY3             -0.28211     0.37622     0.00000     0.00000    -0.35580
           GZ3              0.38430    -0.08476     0.00000     0.00000     0.24990

                                  6
 Wavenumbers [cm-1]            0.00
 Intensities [km/mol]          0.00
 Intensities [relative]        0.00
           GX1              0.00000
           GY1             -0.08408
           GZ1              0.21089
           GX2              0.16416
           GY2             -0.31278
           GZ2              0.02540
           GX3             -0.16416
           GY3              0.14462
           GZ3              0.02540


 Zero point energy:  0.02150197 [H]     4719.14 [1/CM]       56.45 [KJ/MOL]

 Recomputing wavefunction at initial geometry


 Recomputing integrals since geometry and symmetry changed


 Using spherical harmonics

 Library entry O      S cc-pVDZ              selected for orbital group  1
 Library entry O      P cc-pVDZ              selected for orbital group  1
 Library entry O      D cc-pVDZ              selected for orbital group  1
 Library entry H      S cc-pVDZ              selected for orbital group  2
 Library entry H      P cc-pVDZ              selected for orbital group  2

1PROGRAM * SEWARD (Integral evaluation for generally contracted gaussian basis sets)     Author: Roland Lindh, 1990

 Geometry written to block  1 of record 700


 Point group  C2v 



 ATOMIC COORDINATES

 NR  ATOM    CHARGE       X              Y              Z

   1  O       8.00    0.000000000   -0.100198791    0.000000000
   2  H       1.00    0.000000000    1.050047974   -1.418222570
   3  H       1.00    0.000000000    1.050047974    1.418222570

 Bond lengths in Bohr (Angstrom)

 1-2  1.826040219  1-3  1.826040219
     ( 0.966298870)     ( 0.966298870)

 Bond angles

  2-1-3  101.91256806

 NUCLEAR CHARGE:                   10
 NUMBER OF PRIMITIVE AOS:          41
 NUMBER OF SYMMETRY AOS:           40
 NUMBER OF CONTRACTIONS:           24   (  11A1  +   4B1  +   7B2  +   2A2  )
 NUMBER OF CORE ORBITALS:           1   (   1A1  +   0B1  +   0B2  +   0A2  )
 NUMBER OF VALENCE ORBITALS:        6   (   3A1  +   1B1  +   2B2  +   0A2  )

 SYMMETRY CHANGED: INITIALIZING OCCUPATION


 NUCLEAR REPULSION ENERGY    9.11468300

 Eigenvalues of metric

         1 0.176E-01 0.518E-01 0.160E+00 0.224E+00 0.526E+00 0.986E+00 0.101E+01 0.129E+01
         2 0.183E+00 0.528E+00 0.111E+01 0.224E+01
         3 0.462E-01 0.988E-01 0.172E+00 0.668E+00 0.101E+01 0.116E+01 0.254E+01
         4 0.629E+00 0.132E+01


 Contracted 2-electron integrals neglected if value below      1.0D-14
 AO integral compression algorithm  1   Integral accuracy      1.0D-14

     0.786 MB (compressed) written to integral file (100.0%)

     Node minimum: 0.262 MB, node maximum: 0.262 MB


 NUMBER OF SORTED TWO-ELECTRON INTEGRALS:       4533.     BUFFER LENGTH:  32768
 NUMBER OF SEGMENTS:   1  SEGMENT LENGTH:       4533      RECORD LENGTH: 524288

 Memory used in sort:       0.56 MW

 SORT1 READ       19290. AND WROTE        4192. INTEGRALS IN      1 RECORDS. CPU TIME:     0.00 SEC, REAL TIME:     0.00 SEC
 SORT2 READ       12657. AND WROTE       13826. INTEGRALS IN      3 RECORDS. CPU TIME:     0.01 SEC, REAL TIME:     0.01 SEC

 Node minimum:        4366.  Node maximum:        4927. integrals

 OPERATOR DM      FOR CENTER  0  COORDINATES:    0.000000    0.000000    0.000000
1PROGRAM * RHF-SCF (CLOSED SHELL)       Authors: W. Meyer, H.-J. Werner


 NUMBER OF ELECTRONS:       5+    5-
 CONVERGENCE THRESHOLDS:    1.00E-10 (Density)    1.00E-11 (Energy)
 MAX. NUMBER OF ITERATIONS:       60
 INTERPOLATION TYPE:            DIIS
 INTERPOLATION STEPS:              2 (START)      1 (STEP)
 LEVEL SHIFTS:                  0.00 (CLOSED)  0.00 (OPEN) 



 Molecular orbitals read from record     2100.2  Type=RHF/CANONICAL (state 1.1)

 Molecular orbital dump at record        2100.2

 ITERATION    DDIFF          GRAD             ENERGY        2-EL.EN.            DIPOLE MOMENTS         DIIS   ORB.
    1      0.000D+00      0.000D+00       -76.02611203     75.718109    0.00000    0.82781    0.00000    0    start
    2      0.000D+00      0.497D-12       -76.02611203     75.718109    0.00000    0.82781    0.00000    0    orth

 Final occupancy:   3   1   1   0

 !RHF STATE 1.1 Energy                -76.026112034008
 Nuclear energy                         9.11468300
 One-electron energy                 -122.99984942
 Two-electron energy                   37.85905439
 Virial quotient                       -1.00089354
 !RHF STATE 1.1 Dipole moment           0.00000000     0.82780675     0.00000000
 Dipole moment /Debye                   0.00000000     2.10393709     0.00000000

 Orbital energies:

         1.1          2.1          3.1          4.1          5.1
    -20.553442    -1.334208    -0.570230     0.183497     0.857331

         1.2          2.2          3.2
     -0.493460     1.199540     1.658417

         1.3          2.3          3.3
     -0.689531     0.255180     0.774330

         1.4          2.4
      1.482644     3.320296

 HOMO      1.2    -0.493460 =     -13.4277eV
 LUMO      4.1     0.183497 =       4.9932eV
 LUMO-HOMO         0.676956 =      18.4209eV


 **********************************************************************************************************************************
 DATASETS  * FILE   NREC   LENGTH (MB)   RECORD NAMES
              1      18       19.10       500      610      700      900      950      970     1000      129      960     1100   
                                          VAR    BASINP    GEOM    SYMINP    ZMAT    AOBASIS   BASIS     P2S    ABASIS      S 
                                         1400     1410     1200     1210     1080     1600     1650     1700   
                                           T        V       H0       H01     AOSYM     SMH    MOLCAS    OPER   

              2       8        0.41       700     1000      520     2100     5600     5300     5400     5450   
                                         GEOM     BASIS   MCVARS     RHF     GINFO    HESS     FREQ     NMOD   

 PROGRAMS   *        TOTAL       RHF      OPTG   CCSD(T)       RHF       INT
 CPU TIMES  *        13.45      0.16      6.65      0.05      0.01      0.22
 REAL TIME  *        18.50 SEC
 DISK USED  *        74.32 MB      
 SF USED    *         0.54 MB      
 GA USED    *         0.00 MB       (max)       0.00 MB       (current)
 **********************************************************************************************************************************


1PROGRAM * CCSD (Closed-shell coupled cluster)     Authors: C. Hampel, H.-J. Werner, 1991, M. Deegan, P.J. Knowles, 1992


 Convergence thresholds:  THRVAR = 1.00D-14  THRDEN = 1.00D-10

 CCSD(T)     terms to be evaluated (factor= 1.000)


 Number of core orbitals:           1 (   1   0   0   0 )
 Number of closed-shell orbitals:   4 (   2   1   1   0 )
 Number of external orbitals:      19 (   8   3   6   2 )

 Molecular orbitals read from record     2100.2  Type=RHF/CANONICAL (state 1.1)

 Number of N-1 electron functions:               4
 Number of N-2 electron functions:              10
 Number of singly external CSFs:                25
 Number of doubly external CSFs:               805
 Total number of CSFs:                         831

 Length of J-op  integral file:               0.00 MB
 Length of K-op  integral file:               0.01 MB
 Length of 3-ext integral record:             0.00 MB

 Memory could be reduced to 0.30 Mwords without degradation in triples

 Integral transformation finished. Total CPU:   0.00 sec, npass=  1  Memory used:   0.07 MW

 Reference energy:                    -76.02611203

 MP2 singlet pair energy:              -0.12620423
 MP2 triplet pair energy:              -0.07634636
 MP2 correlation energy:               -0.20255058
 MP2 total energy:                    -76.22866262

 SCS-MP2 correlation energy:           -0.19894947   (PS=  1.200000  PT=  0.333333)
 SCS-MP2 total energy:                -76.22506151

 ITER.      SQ.NORM     CORR.ENERGY   TOTAL ENERGY   ENERGY CHANGE        DEN1      VAR(S)    VAR(P)  DIIS     TIME  TIME/IT
   1      1.05339632    -0.21106260   -76.23717463    -0.00851202    -0.00487137  0.29D-03  0.69D-03  1  1     0.01     0.00
   2      1.05663628    -0.21201095   -76.23812299    -0.00094835    -0.00393859  0.54D-05  0.60D-04  2  2     0.01     0.00
   3      1.05745327    -0.21208776   -76.23819979    -0.00007681    -0.00061190  0.21D-05  0.24D-05  3  3     0.01     0.00
   4      1.05763967    -0.21209081   -76.23820284    -0.00000305    -0.00010076  0.13D-06  0.14D-06  4  4     0.02     0.00
   5      1.05767452    -0.21208931   -76.23820134     0.00000150    -0.00001600  0.34D-07  0.78D-08  5  5     0.02     0.00
   6      1.05767936    -0.21208924   -76.23820127     0.00000007     0.00000037  0.43D-08  0.84D-09  6  6     0.02     0.00
   7      1.05768209    -0.21208918   -76.23820122     0.00000006    -0.00000027  0.16D-09  0.70D-10  6  1     0.02     0.00
   8      1.05768246    -0.21208913   -76.23820117     0.00000005     0.00000007  0.43D-11  0.50D-11  6  2     0.02     0.00
   9      1.05768257    -0.21208912   -76.23820116     0.00000001    -0.00000006  0.10D-12  0.31D-12  6  3     0.02     0.00
  10      1.05768260    -0.21208912   -76.23820115     0.00000000    -0.00000002  0.21D-14  0.89D-14  6  4     0.03     0.00
  11      1.05768260    -0.21208912   -76.23820115     0.00000000    -0.00000000  0.18D-15  0.34D-15  6  6     0.03     0.00
  12      1.05768260    -0.21208912   -76.23820115     0.00000000    -0.00000000  0.28D-17  0.13D-16  6  5     0.03     0.00

 Norm of t1 vector:      0.02424505      S-energy:     0.00000000      T1 diagnostic:  0.00606126
                                                                       D1 diagnostic:  0.01141286

 Doubles amplitudes (print threshold =  0.500E-01):

         I         J         SYM. A    SYM. B    A         B      T(IJ, AB)

         3         3         2         2         1         1     -0.05142883

 Total CPU time for triples:      0.00 sec


 RESULTS
 =======

  Reference energy                    -76.026112034008
  CCSD singlet pair energy             -0.144045170977
  CCSD triplet pair energy             -0.068043949068
  CCSD correlation energy              -0.212089120039

  Triples (T) contribution             -0.003103873498
  Total correlation energy             -0.215192993538

  CCSD total energy                   -76.238201154047
  CCSD[T] energy                      -76.241393739434
  CCSD-T energy                       -76.241248123323
 !CCSD(T) total energy                -76.241305027546

 Timing summary (sec):

 STEP                 CPU(USER)    SYS     CPU(TOT)    WALL
 CCSD iterations         0.03      0.00      0.03      0.02

 Program statistics:

 Available memory in ccsd:               999999836
 Min. memory needed in ccsd:                  5661
 Max. memory used in ccsd:                    6126
 Max. memory used in cckext:                 38485 (12 integral passes)



 **********************************************************************************************************************************
 DATASETS  * FILE   NREC   LENGTH (MB)   RECORD NAMES
              1      19       19.16       500      610      700      900      950      970     1000      129      960     1100   
                                          VAR    BASINP    GEOM    SYMINP    ZMAT    AOBASIS   BASIS     P2S    ABASIS      S 
                                         1400     1410     1200     1210     1080     1600     1650     1700     1380   
                                           T        V       H0       H01     AOSYM     SMH    MOLCAS    OPER     JKOP   

              2       8        0.41       700     1000      520     2100     5600     5300     5400     5450   
                                         GEOM     BASIS   MCVARS     RHF     GINFO    HESS     FREQ     NMOD   

 PROGRAMS   *        TOTAL   CCSD(T)      OPTG   CCSD(T)       RHF       INT
 CPU TIMES  *        13.50      0.05      6.65      0.05      0.01      0.22
 REAL TIME  *        18.56 SEC
 DISK USED  *        74.32 MB      
 SF USED    *         0.54 MB      
 GA USED    *         0.00 MB       (max)       0.00 MB       (current)
 **********************************************************************************************************************************


 **********************************************************************************************************************************
 DATASETS  * FILE   NREC   LENGTH (MB)   RECORD NAMES
              1      19       19.16       500      610      700      900      950      970     1000      129      960     1100   
                                          VAR    BASINP    GEOM    SYMINP    ZMAT    AOBASIS   BASIS     P2S    ABASIS      S 
                                         1400     1410     1200     1210     1080     1600     1650     1700     1380   
                                           T        V       H0       H01     AOSYM     SMH    MOLCAS    OPER     JKOP   

              2       8        0.41       700     1000      520     2100     5600     5300     5400     5450   
                                         GEOM     BASIS   MCVARS     RHF     GINFO    HESS     FREQ     NMOD   

 PROGRAMS   *        TOTAL      FREQ      OPTG   CCSD(T)       RHF       INT
 CPU TIMES  *        13.50      6.45      6.65      0.05      0.01      0.22
 REAL TIME  *        18.56 SEC
 DISK USED  *        74.32 MB      
 SF USED    *         0.54 MB      
 GA USED    *         0.00 MB       (max)       0.00 MB       (current)
 **********************************************************************************************************************************

 CCSD(T)/cc-pVDZ energy=    -76.241305027546

   OPTG(CCSD(T))        CCSD(T)         RHF-SCF 
    -76.24130503    -76.23999995    -76.02592382
 **********************************************************************************************************************************
 Variable memory released
