
    -----------------------------------------------------------------------
          Psi4: An Open-Source Ab Initio Electronic Structure Package
                               Psi4 1.2.1 release

                         Git: Rev {HEAD} 406f4de 


    R. M. Parrish, L. A. Burns, D. G. A. Smith, A. C. Simmonett,
    A. E. DePrince III, E. G. Hohenstein, U. Bozkaya, A. Yu. Sokolov,
    R. Di Remigio, R. M. Richard, J. F. Gonthier, A. M. James,
    H. R. McAlexander, A. Kumar, M. Saitow, X. Wang, B. P. Pritchard,
    P. Verma, H. F. Schaefer III, K. Patkowski, R. A. King, E. F. Valeev,
    F. A. Evangelista, J. M. Turney, T. D. Crawford, and C. D. Sherrill,
    J. Chem. Theory Comput. 13(7) pp 3185--3197 (2017).
    (doi: 10.1021/acs.jctc.7b00174)


                         Additional Contributions by
    P. Kraus, H. Kruse, M. H. Lechner, M. C. Schieber, and R. A. Shaw

    -----------------------------------------------------------------------


    Psi4 started on: Monday, 17 December 2018 05:36PM

    Process ID: 54672
    Host:       blogin2
    PSIDATADIR: /home/copan/miniconda/envs/esenv/share/psi4
    Memory:     500.0 MiB
    Threads:    1
    
  ==> Input File <==

--------------------------------------------------------------------------
molecule{
1 2
O 0.0 0.0 -0.143225816552
H 0.0 1.638036840407 1.136548822547
H 0.0 -1.638036840407 1.136548822547
units angstrom
}

set basis STO-3G
set d_convergence 12
set maxiter 100
set scf_type pk

set reference rohf

energy('ccsd')
--------------------------------------------------------------------------

*** tstart() called on blogin2
*** at Mon Dec 17 17:36:33 2018

   => Loading Basis Set <=

    Name: STO-3G
    Role: ORBITAL
    Keyword: BASIS
    atoms 1   entry O          line    81 file /home/copan/miniconda/envs/esenv/share/psi4/basis/sto-3g.gbs 
    atoms 2-3 entry H          line    19 file /home/copan/miniconda/envs/esenv/share/psi4/basis/sto-3g.gbs 


         ---------------------------------------------------------
                                   SCF
            by Justin Turney, Rob Parrish, Andy Simmonett
                             and Daniel Smith
                             ROHF Reference
                        1 Threads,    500 MiB Core
         ---------------------------------------------------------

  ==> Geometry <==

    Molecular point group: c2v
    Full point group: C2v

    Geometry (in Angstrom), charge = 1, multiplicity = 2:

       Center              X                  Y                   Z               Mass       
    ------------   -----------------  -----------------  -----------------  -----------------
         O            0.000000000000     0.000000000000    -0.143225816552    15.994914619560
         H           -0.000000000000     1.638036840407     1.136548822547     1.007825032070
         H            0.000000000000    -1.638036840407     1.136548822547     1.007825032070

  Running in c2v symmetry.

  Rotational constants: A =      5.74989  B =      3.11698  C =      2.02127 [cm^-1]
  Rotational constants: A = 172377.45455  B =  93444.71186  C =  60596.00593 [MHz]
  Nuclear repulsion =    4.234670263881583

  Charge       = 1
  Multiplicity = 2
  Electrons    = 9
  Nalpha       = 5
  Nbeta        = 4

  ==> Algorithm <==

  SCF Algorithm Type is PK.
  DIIS enabled.
  MOM disabled.
  Fractional occupation disabled.
  Guess Type is GWH.
  Energy threshold   = 1.00e-08
  Density threshold  = 1.00e-12
  Integral threshold = 0.00e+00

  ==> Primary Basis <==

  Basis Set: STO-3G
    Blend: STO-3G
    Number of shells: 5
    Number of basis function: 7
    Number of Cartesian functions: 7
    Spherical Harmonics?: true
    Max angular momentum: 1

  ==> Pre-Iterations <==

   -------------------------------------------------------
    Irrep   Nso     Nmo     Nalpha   Nbeta   Ndocc  Nsocc
   -------------------------------------------------------
     A1         4       4       0       0       0       0
     A2         0       0       0       0       0       0
     B1         1       1       0       0       0       0
     B2         2       2       0       0       0       0
   -------------------------------------------------------
    Total       7       7       5       4       4       1
   -------------------------------------------------------

  ==> Integral Setup <==

  Using in-core PK algorithm.
   Calculation information:
      Number of atoms:                   3
      Number of AO shells:               5
      Number of primitives:             15
      Number of atomic orbitals:         7
      Number of basis functions:         7

      Integral cutoff                 1.00e-12
      Number of threads:                 1

  Performing in-core PK
  Using 812 doubles for integral storage.
  We computed 120 shell quartets total.
  Whereas there are 120 unique shell quartets.

  ==> DiskJK: Disk-Based J/K Matrices <==

    J tasked:                  Yes
    K tasked:                  Yes
    wK tasked:                  No
    Memory (MB):               375
    Schwarz Cutoff:          1E-12

    OpenMP threads:              1

  Minimum eigenvalue in the overlap matrix is 7.4788857818E-01.
  Using Symmetric Orthogonalization.

  SCF Guess: Generalized Wolfsberg-Helmholtz.

  ==> Iterations <==

                        Total Energy        Delta E     RMS |[F,P]|

    Occupation by irrep:
             A1    A2    B1    B2 
    DOCC [     3,    0,    0,    1 ]
    SOCC [     0,    0,    1,    0 ]

   @ROHF iter   1:   -73.01478149863732   -7.30148e+01   6.50534e-02 
    Occupation by irrep:
             A1    A2    B1    B2 
    DOCC [     2,    0,    1,    1 ]
    SOCC [     1,    0,    0,    0 ]

   @ROHF iter   2:   -72.11912012813572    8.95661e-01   1.28224e-01 DIIS
   @ROHF iter   3:   -74.13736166816203   -2.01824e+00   1.51839e-02 DIIS
   @ROHF iter   4:   -74.14324574701131   -5.88408e-03   9.57396e-03 DIIS
   @ROHF iter   5:   -74.14463034383537   -1.38460e-03   9.83530e-03 DIIS
   @ROHF iter   6:   -74.15204143675101   -7.41109e-03   7.23176e-03 DIIS
   @ROHF iter   7:   -74.16102786109479   -8.98642e-03   4.94630e-03 DIIS
   @ROHF iter   8:   -74.14843814573381    1.25897e-02   1.13200e-02 DIIS
   @ROHF iter   9:   -74.15036606846854   -1.92792e-03   1.26438e-02 DIIS
   @ROHF iter  10:   -74.16128315142666   -1.09171e-02   6.46252e-03 DIIS
   @ROHF iter  11:   -74.16127247778527    1.06736e-05   6.45380e-03 DIIS
   @ROHF iter  12:   -74.16265148989528   -1.37901e-03   2.66417e-03 DIIS
   @ROHF iter  13:   -74.16374115043274   -1.08966e-03   1.03721e-03 DIIS
   @ROHF iter  14:   -74.16381138796166   -7.02375e-05   1.06206e-04 DIIS
   @ROHF iter  15:   -74.16381260925979   -1.22130e-06   3.78950e-05 DIIS
   @ROHF iter  16:   -74.16381267726594   -6.80061e-08   1.28436e-05 DIIS
   @ROHF iter  17:   -74.16381269765662   -2.03907e-08   1.26427e-06 DIIS
   @ROHF iter  18:   -74.16381269784260   -1.85977e-10   7.81462e-08 DIIS
   @ROHF iter  19:   -74.16381269784323   -6.25278e-13   5.84115e-09 DIIS
   @ROHF iter  20:   -74.16381269784324   -1.42109e-14   1.81533e-10 DIIS
   @ROHF iter  21:   -74.16381269784321    2.84217e-14   1.49199e-12 DIIS
   @ROHF iter  22:   -74.16381269784327   -5.68434e-14   3.54978e-14 DIIS

  ==> Post-Iterations <==

    Orbital Energies [Eh]
    ---------------------

    Doubly Occupied:                                                      

       1A1   -20.636517     2A1    -1.420904     1B1    -0.706101  
       1B2    -0.578255  

    Singly Occupied:                                                      

       3A1    -0.401883  

    Virtual:                                                              

       4A1    -0.281699     2B2    -0.188559  

    Final Occupation by Irrep:
             A1    A2    B1    B2 
    DOCC [     2,    0,    1,    1 ]
    SOCC [     1,    0,    0,    0 ]

  Energy converged.

  @ROHF Final Energy:   -74.16381269784327

   => Energetics <=

    Nuclear Repulsion Energy =              4.2346702638815827
    One-Electron Energy =                -109.2957213277277333
    Two-Electron Energy =                  30.8972383660028846
    Total Energy =                        -74.1638126978432695



Properties will be evaluated at   0.000000,   0.000000,   0.000000 [a0]

Properties computed using the SCF density matrix

  Nuclear Dipole Moment: [e a0]
     X:     0.0000      Y:     0.0000      Z:     2.1303

  Electronic Dipole Moment: [e a0]
     X:     0.0000      Y:     0.0000      Z:    -0.1495

  Dipole Moment: [e a0]
     X:     0.0000      Y:     0.0000      Z:     1.9807     Total:     1.9807

  Dipole Moment: [D]
     X:     0.0000      Y:     0.0000      Z:     5.0345     Total:     5.0345


*** tstop() called on blogin2 at Mon Dec 17 17:36:33 2018
Module time:
	user time   =       0.13 seconds =       0.00 minutes
	system time =       0.01 seconds =       0.00 minutes
	total time  =          0 seconds =       0.00 minutes
Total time:
	user time   =       0.13 seconds =       0.00 minutes
	system time =       0.01 seconds =       0.00 minutes
	total time  =          0 seconds =       0.00 minutes
 MINTS: Wrapper to libmints.
   by Justin Turney

   Calculation information:
      Number of threads:                 1
      Number of atoms:                   3
      Number of AO shells:               5
      Number of SO shells:               4
      Number of primitives:             15
      Number of atomic orbitals:         7
      Number of basis functions:         7

      Number of irreps:                  4
      Integral cutoff                 0.00e+00
      Number of functions per irrep: [   4    0    1    2 ]

 OEINTS: Overlap, kinetic, potential, dipole, and quadrupole integrals
         stored in file 35.

      Computing two-electron integrals...done
      Computed 138 non-zero two-electron integrals.
        Stored in file 33.


*** tstart() called on blogin2
*** at Mon Dec 17 17:36:33 2018


	Wfn Parameters:
	--------------------
	Wavefunction         = CCSD
	Number of irreps     = 4
	Number of MOs        = 7
	Number of active MOs = 7
	AO-Basis             = NONE
	Semicanonical        = false
	Reference            = ROHF
	Print Level          = 1

	IRREP	# MOs	# FZDC	# DOCC	# SOCC	# VIRT	# FZVR
	-----	-----	------	------	------	------	------
	 A1	   4	    0	    2	    1	    1	    0
	 A2	   0	    0	    0	    0	    0	    0
	 B1	   1	    0	    1	    0	    0	    0
	 B2	   2	    0	    1	    0	    1	    0
	Transforming integrals...
	IWL integrals will be deleted.
	(OO|OO)...
	Presorting SO-basis two-electron integrals.
	Sorting File: SO Ints (nn|nn) nbuckets = 1
	Transforming the one-electron integrals and constructing Fock matrices
	Starting first half-transformation.
	Sorting half-transformed integrals.
	First half integral transformation complete.
	Starting second half-transformation.
	Two-electron integral transformation complete.
	(OO|OV)...
	Starting second half-transformation.
	Two-electron integral transformation complete.
	(OO|VV)...
	Starting second half-transformation.
	Two-electron integral transformation complete.
	(OV|OO)...
	Starting first half-transformation.
	Sorting half-transformed integrals.
	First half integral transformation complete.
	Starting second half-transformation.
	Two-electron integral transformation complete.
	(OV|OV)...
	Starting second half-transformation.
	Two-electron integral transformation complete.
	(OV|VV)...
	Starting second half-transformation.
	Two-electron integral transformation complete.
	(VV|OO)...
	Starting first half-transformation.
	Sorting half-transformed integrals.
	First half integral transformation complete.
	Starting second half-transformation.
	Two-electron integral transformation complete.
	(VV|OV)...
	Starting second half-transformation.
	Two-electron integral transformation complete.
	(VV|VV)...
	Starting second half-transformation.
	Two-electron integral transformation complete.
	Frozen core energy     =      0.00000000000000

	Size of irrep 0 of <ab|cd> integrals:      0.000 (MW) /      0.000 (MB)
	Size of irrep 1 of <ab|cd> integrals:      0.000 (MW) /      0.000 (MB)
	Size of irrep 2 of <ab|cd> integrals:      0.000 (MW) /      0.000 (MB)
	Size of irrep 3 of <ab|cd> integrals:      0.000 (MW) /      0.000 (MB)
	Total:                                     0.000 (MW) /      0.000 (MB)

	Size of irrep 0 of <ia|bc> integrals:      0.000 (MW) /      0.000 (MB)
	Size of irrep 1 of <ia|bc> integrals:      0.000 (MW) /      0.000 (MB)
	Size of irrep 2 of <ia|bc> integrals:      0.000 (MW) /      0.000 (MB)
	Size of irrep 3 of <ia|bc> integrals:      0.000 (MW) /      0.000 (MB)
	Total:                                     0.000 (MW) /      0.000 (MB)

	Size of irrep 0 of tIjAb amplitudes:       0.000 (MW) /      0.000 (MB)
	Size of irrep 1 of tIjAb amplitudes:       0.000 (MW) /      0.000 (MB)
	Size of irrep 2 of tIjAb amplitudes:       0.000 (MW) /      0.000 (MB)
	Size of irrep 3 of tIjAb amplitudes:       0.000 (MW) /      0.000 (MB)
	Total:                                     0.000 (MW) /      0.001 (MB)

	Nuclear Rep. energy          =      4.23467026388158
	SCF energy                   =    -74.16381269784327
	One-electron energy          =   -109.29572132772822
	Two-electron (AA) energy     =      7.17288358743848
	Two-electron (BB) energy     =      4.31691936899264
	Two-electron (AB) energy     =     19.40743540957227
	Two-electron energy          =    -78.39848296172484
	Reference energy             =    -74.16381269784326

*** tstop() called on blogin2 at Mon Dec 17 17:36:33 2018
Module time:
	user time   =       0.02 seconds =       0.00 minutes
	system time =       0.03 seconds =       0.00 minutes
	total time  =          0 seconds =       0.00 minutes
Total time:
	user time   =       0.17 seconds =       0.00 minutes
	system time =       0.04 seconds =       0.00 minutes
	total time  =          0 seconds =       0.00 minutes

*** tstart() called on blogin2
*** at Mon Dec 17 17:36:33 2018

            **************************
            *                        *
            *        CCENERGY        *
            *                        *
            **************************

    Nuclear Rep. energy (wfn)     =    4.234670263881583
    SCF energy          (wfn)     =  -74.163812697843269
    Reference energy    (file100) =  -74.163812697843255

    Input parameters:
    -----------------
    Wave function   =     CCSD
    Reference wfn   =     ROHF
    Brueckner       =     No
    Memory (Mbytes) =     524.3
    Maxiter         =    100
    R_Convergence   =     1.0e-07
    E_Convergence   =     1.0e-06
    Restart         =     Yes
    DIIS            =     Yes
    AO Basis        =     NONE
    ABCD            =     NEW
    Cache Level     =     2
    Cache Type      =     LOW
    Print Level     =     1
    Num. of threads =     1
    # Amps to Print =     10
    Print MP2 Amps? =     No
    Analyze T2 Amps =     No
    Print Pair Ener =     No
    Local CC        =     No
    SCS-MP2         =     False
    SCSN-MP2        =     False
    SCS-CCSD        =     False

                Solving CC Amplitude Equations
                ------------------------------
  Iter             Energy              RMS        T1Diag      D1Diag    New D1Diag    D2Diag
  ----     ---------------------    ---------   ----------  ----------  ----------   --------
     0        -0.110334459039206    0.000e+00    0.000039    0.000117    0.000117    0.000000
     1        -0.129803207449440    1.822e-01    0.035831    0.097369    0.097369    0.000000
     2        -0.144194499292861    7.650e-02    0.032055    0.078219    0.078219    0.000000
     3        -0.147036105923448    4.888e-02    0.038002    0.084120    0.084120    0.000000
     4        -0.151469653835053    3.234e-02    0.044807    0.081968    0.115920    0.000000
     5        -0.152211133312166    1.017e-02    0.047198    0.088472    0.125118    0.000000
     6        -0.152296858623699    7.495e-03    0.048538    0.092066    0.130201    0.000000
     7        -0.152433962796072    6.466e-03    0.051530    0.100260    0.141790    0.000000
     8        -0.153010108825498    4.506e-03    0.054147    0.106465    0.150565    0.000000
     9        -0.152915912821296    3.097e-03    0.054959    0.108643    0.153645    0.000000
    10        -0.153030077017309    1.736e-03    0.055313    0.109556    0.154936    0.000000
    11        -0.153101764400726    1.222e-03    0.055677    0.110459    0.156213    0.000000
    12        -0.153104322646423    8.762e-04    0.055534    0.110058    0.155645    0.000000
    13        -0.153140106986721    6.583e-04    0.055490    0.109936    0.155473    0.000000
    14        -0.153138095253686    5.191e-04    0.055417    0.109699    0.155138    0.000000
    15        -0.153147041973367    3.833e-04    0.055303    0.109394    0.154707    0.000000
    16        -0.153162227890677    2.546e-04    0.055219    0.109192    0.154421    0.000000
    17        -0.153170539939457    1.778e-04    0.055151    0.109033    0.154196    0.000000
    18        -0.153180187153806    1.159e-04    0.055118    0.108971    0.154109    0.000000
    19        -0.153179492142076    4.104e-05    0.055113    0.108965    0.154099    0.000000
    20        -0.153178296728412    1.965e-05    0.055110    0.108960    0.154092    0.000000
    21        -0.153177557755995    1.445e-05    0.055103    0.108941    0.154066    0.000000
    22        -0.153176369846017    9.418e-06    0.055095    0.108922    0.154039    0.000000
    23        -0.153176001369694    4.448e-06    0.055093    0.108918    0.154033    0.000000
    24        -0.153175836162412    2.710e-06    0.055093    0.108917    0.154031    0.000000
    25        -0.153175821566314    1.558e-06    0.055093    0.108916    0.154031    0.000000
    26        -0.153175796363065    1.170e-06    0.055093    0.108916    0.154031    0.000000
    27        -0.153175784008575    7.613e-07    0.055093    0.108917    0.154032    0.000000
    28        -0.153175772135826    5.244e-07    0.055093    0.108917    0.154032    0.000000
    29        -0.153175743924688    4.123e-07    0.055093    0.108917    0.154033    0.000000
    30        -0.153175728175424    2.923e-07    0.055093    0.108917    0.154033    0.000000
    31        -0.153175717522167    2.001e-07    0.055093    0.108917    0.154033    0.000000
    32        -0.153175720617354    9.201e-08    0.055093    0.108918    0.154033    0.000000

    Iterations converged.


    Largest TIA Amplitudes:
              2   0         0.2178350040
              4   2         0.0267542827
              1   0        -0.0134326029
              0   0         0.0000103038

    Largest Tia Amplitudes:
              4   2        -0.1409564638
              1   0        -0.0214842145
              1   1        -0.0071907557
              0   0         0.0000969377
              0   1         0.0000360830

    Largest TIJAB Amplitudes:
      4   2   2   0         0.0206580378
      4   1   2   0        -0.0121179574
      4   0   2   0        -0.0000277631

    Largest Tijab Amplitudes:
      4   1   2   0        -0.0132698228
      4   1   2   1        -0.0116135556
      4   0   2   1         0.0000405297
      1   0   1   0        -0.0000179776
      4   0   2   0        -0.0000058362

    Largest TIjAb Amplitudes:
      4   4   2   2        -0.3980686142
      4   4   0   0        -0.2375540882
      2   4   0   2         0.2059434179
      2   4   2   0         0.1635260192
      2   4   2   1        -0.1506487231
      4   4   0   1        -0.0825937061
      3   3   0   1         0.0386777579
      1   1   0   1         0.0379777433
      4   1   2   0        -0.0358205189
      1   4   0   2        -0.0354892289

    SCF energy       (wfn)                    =  -74.163812697843269
    Reference energy (file100)                =  -74.163812697843255

    Opposite-spin CCSD correlation energy     =   -0.149789497359325
    Same-spin CCSD correlation energy         =   -0.001923318052212
    CCSD correlation energy                   =   -0.153175720617354
      * CCSD total energy                     =  -74.316988418460610


*** tstop() called on blogin2 at Mon Dec 17 17:36:35 2018
Module time:
	user time   =       0.36 seconds =       0.01 minutes
	system time =       0.49 seconds =       0.01 minutes
	total time  =          2 seconds =       0.03 minutes
Total time:
	user time   =       0.53 seconds =       0.01 minutes
	system time =       0.53 seconds =       0.01 minutes
	total time  =          2 seconds =       0.03 minutes

    Psi4 stopped on: Monday, 17 December 2018 05:36PM
    Psi4 wall time for execution: 0:00:01.78

*** Psi4 exiting successfully. Buy a developer a beer!
