
    -----------------------------------------------------------------------
          Psi4: An Open-Source Ab Initio Electronic Structure Package
                               Psi4 1.2.1 release

                         Git: Rev {HEAD} 406f4de 


    R. M. Parrish, L. A. Burns, D. G. A. Smith, A. C. Simmonett,
    A. E. DePrince III, E. G. Hohenstein, U. Bozkaya, A. Yu. Sokolov,
    R. Di Remigio, R. M. Richard, J. F. Gonthier, A. M. James,
    H. R. McAlexander, A. Kumar, M. Saitow, X. Wang, B. P. Pritchard,
    P. Verma, H. F. Schaefer III, K. Patkowski, R. A. King, E. F. Valeev,
    F. A. Evangelista, J. M. Turney, T. D. Crawford, and C. D. Sherrill,
    J. Chem. Theory Comput. 13(7) pp 3185--3197 (2017).
    (doi: 10.1021/acs.jctc.7b00174)


                         Additional Contributions by
    P. Kraus, H. Kruse, M. H. Lechner, M. C. Schieber, and R. A. Shaw

    -----------------------------------------------------------------------


    Psi4 started on: Monday, 17 December 2018 11:33PM

    Process ID: 72054
    Host:       blogin2
    PSIDATADIR: /home/kmoore/miniconda/envs/esenv/share/psi4
    Memory:     500.0 MiB
    Threads:    4
    
  ==> Input File <==

--------------------------------------------------------------------------
molecule{
0 1
O 0.0 0.0 -0.143225816552
H 0.0 1.638036840407 1.136548822547
H 0.0 -1.638036840407 1.136548822547
units angstrom
}

set basis cc-pVDZ
set d_convergence 12
set maxiter 100
set scf_type pk

set reference rhf

energy('ccsd')
--------------------------------------------------------------------------

*** tstart() called on blogin2
*** at Mon Dec 17 23:33:49 2018

   => Loading Basis Set <=

    Name: CC-PVDZ
    Role: ORBITAL
    Keyword: BASIS
    atoms 1   entry O          line   198 file /home/kmoore/miniconda/envs/esenv/share/psi4/basis/cc-pvdz.gbs 
    atoms 2-3 entry H          line    22 file /home/kmoore/miniconda/envs/esenv/share/psi4/basis/cc-pvdz.gbs 


         ---------------------------------------------------------
                                   SCF
            by Justin Turney, Rob Parrish, Andy Simmonett
                             and Daniel Smith
                              RHF Reference
                        4 Threads,    500 MiB Core
         ---------------------------------------------------------

  ==> Geometry <==

    Molecular point group: c2v
    Full point group: C2v

    Geometry (in Angstrom), charge = 0, multiplicity = 1:

       Center              X                  Y                   Z               Mass       
    ------------   -----------------  -----------------  -----------------  -----------------
         O            0.000000000000     0.000000000000    -0.143225816552    15.994914619560
         H           -0.000000000000     1.638036840407     1.136548822547     1.007825032070
         H            0.000000000000    -1.638036840407     1.136548822547     1.007825032070

  Running in c2v symmetry.

  Rotational constants: A =      5.74989  B =      3.11698  C =      2.02127 [cm^-1]
  Rotational constants: A = 172377.45455  B =  93444.71186  C =  60596.00593 [MHz]
  Nuclear repulsion =    4.234670263881583

  Charge       = 0
  Multiplicity = 1
  Electrons    = 10
  Nalpha       = 5
  Nbeta        = 5

  ==> Algorithm <==

  SCF Algorithm Type is PK.
  DIIS enabled.
  MOM disabled.
  Fractional occupation disabled.
  Guess Type is SAD.
  Energy threshold   = 1.00e-08
  Density threshold  = 1.00e-12
  Integral threshold = 0.00e+00

  ==> Primary Basis <==

  Basis Set: CC-PVDZ
    Blend: CC-PVDZ
    Number of shells: 12
    Number of basis function: 24
    Number of Cartesian functions: 25
    Spherical Harmonics?: true
    Max angular momentum: 2

  ==> Pre-Iterations <==

   -------------------------------------------------------
    Irrep   Nso     Nmo     Nalpha   Nbeta   Ndocc  Nsocc
   -------------------------------------------------------
     A1        11      11       0       0       0       0
     A2         2       2       0       0       0       0
     B1         4       4       0       0       0       0
     B2         7       7       0       0       0       0
   -------------------------------------------------------
    Total      24      24       5       5       5       0
   -------------------------------------------------------

  ==> Integral Setup <==

  Using in-core PK algorithm.
   Calculation information:
      Number of atoms:                   3
      Number of AO shells:              12
      Number of primitives:             32
      Number of atomic orbitals:        25
      Number of basis functions:        24

      Integral cutoff                 1.00e-12
      Number of threads:                 4

  Performing in-core PK
  Using 90300 doubles for integral storage.
  We computed 4531 shell quartets total.
  Whereas there are 3081 unique shell quartets.
    47.06 percent of shell quartets recomputed by reordering.

  ==> DiskJK: Disk-Based J/K Matrices <==

    J tasked:                  Yes
    K tasked:                  Yes
    wK tasked:                  No
    Memory (MB):               375
    Schwarz Cutoff:          1E-12

    OpenMP threads:              4

  Minimum eigenvalue in the overlap matrix is 1.5328390190E-01.
  Using Symmetric Orthogonalization.

  SCF Guess: Superposition of Atomic Densities via on-the-fly atomic UHF.

  ==> Iterations <==

                        Total Energy        Delta E     RMS |[F,P]|

   @RHF iter   0:   -75.05160815324426   -7.50516e+01   2.58208e-02 
   @RHF iter   1:   -75.44118108889009   -3.89573e-01   3.96492e-02 
   @RHF iter   2:   -75.25880166357240    1.82379e-01   6.57316e-02 DIIS
   @RHF iter   3:   -75.54337168970051   -2.84570e-01   7.46359e-03 DIIS
   @RHF iter   4:   -75.54499147695984   -1.61979e-03   2.51651e-03 DIIS
   @RHF iter   5:   -75.54534389341191   -3.52416e-04   3.10539e-04 DIIS
   @RHF iter   6:   -75.54535165261855   -7.75921e-06   8.21107e-05 DIIS
   @RHF iter   7:   -75.54535634367966   -4.69106e-06   9.93726e-05 DIIS
   @RHF iter   8:   -75.54536826301204   -1.19193e-05   9.73578e-05 DIIS
   @RHF iter   9:   -75.54550279446549   -1.34531e-04   9.92041e-05 DIIS
   @RHF iter  10:   -75.54533450103237    1.68293e-04   7.29762e-04 DIIS
   @RHF iter  11:   -75.54511568683509    2.18814e-04   1.23932e-04 DIIS
   @RHF iter  12:   -75.54570392126239   -5.88234e-04   3.31561e-04 DIIS
   @RHF iter  13:   -75.54570874992721   -4.82866e-06   3.92530e-04 DIIS
   @RHF iter  14:   -75.54571782612346   -9.07620e-06   2.73580e-04 DIIS
   @RHF iter  15:   -75.54572396389987   -6.13778e-06   2.01902e-04 DIIS
   @RHF iter  16:   -75.54572792575071   -3.96185e-06   4.32243e-06 DIIS
   @RHF iter  17:   -75.54572718863135    7.37119e-07   1.76517e-05 DIIS
   @RHF iter  18:   -75.54572799009686   -8.01466e-07   5.03823e-06 DIIS
   @RHF iter  19:   -75.54572802080685   -3.07100e-08   1.03314e-06 DIIS
   @RHF iter  20:   -75.54572802457753   -3.77068e-09   2.82844e-08 DIIS
   @RHF iter  21:   -75.54572802458004   -2.51532e-12   4.04343e-09 DIIS
   @RHF iter  22:   -75.54572802458009   -4.26326e-14   1.96045e-09 DIIS
   @RHF iter  23:   -75.54572802458019   -9.94760e-14   2.68619e-11 DIIS
   @RHF iter  24:   -75.54572802458010    8.52651e-14   1.12258e-11 DIIS
   @RHF iter  25:   -75.54572802458017   -7.10543e-14   3.61524e-12 DIIS
   @RHF iter  26:   -75.54572802458027   -9.94760e-14   7.26668e-14 DIIS

  ==> Post-Iterations <==

    Orbital Energies [Eh]
    ---------------------

    Doubly Occupied:                                                      

       1A1   -20.682135     2A1    -1.208778     1B1    -0.521588  
       1B2    -0.445610     3A1    -0.380633  

    Virtual:                                                              

       2B2    -0.049844     4A1    -0.025412     5A1     0.606390  
       3B2     0.661672     4B2     1.143567     6A1     1.156904  
       2B1     1.157856     7A1     1.321084     1A2     1.447272  
       5B2     1.448312     8A1     1.466492     3B1     1.477204  
       6B2     1.710193     9A1     1.857502    10A1     2.936074  
       4B1     2.945867     2A2     2.951720     7B2     2.960046  
      11A1     2.962753  

    Final Occupation by Irrep:
             A1    A2    B1    B2 
    DOCC [     3,    0,    1,    1 ]

  Energy converged.

  @RHF Final Energy:   -75.54572802458027

   => Energetics <=

    Nuclear Repulsion Energy =              4.2346702638815827
    One-Electron Energy =                -113.0833073981753216
    Two-Electron Energy =                  33.3029091097134824
    Total Energy =                        -75.5457280245802565



Properties will be evaluated at   0.000000,   0.000000,   0.000000 [a0]

Properties computed using the SCF density matrix

  Nuclear Dipole Moment: [e a0]
     X:     0.0000      Y:     0.0000      Z:     2.1303

  Electronic Dipole Moment: [e a0]
     X:     0.0000      Y:     0.0000      Z:    -1.3977

  Dipole Moment: [e a0]
     X:     0.0000      Y:     0.0000      Z:     0.7325     Total:     0.7325

  Dipole Moment: [D]
     X:     0.0000      Y:     0.0000      Z:     1.8619     Total:     1.8619


*** tstop() called on blogin2 at Mon Dec 17 23:33:50 2018
Module time:
	user time   =       1.87 seconds =       0.03 minutes
	system time =       0.02 seconds =       0.00 minutes
	total time  =          1 seconds =       0.02 minutes
Total time:
	user time   =       1.87 seconds =       0.03 minutes
	system time =       0.02 seconds =       0.00 minutes
	total time  =          1 seconds =       0.02 minutes
 MINTS: Wrapper to libmints.
   by Justin Turney

   Calculation information:
      Number of threads:                 4
      Number of atoms:                   3
      Number of AO shells:              12
      Number of SO shells:               9
      Number of primitives:             32
      Number of atomic orbitals:        25
      Number of basis functions:        24

      Number of irreps:                  4
      Integral cutoff                 0.00e+00
      Number of functions per irrep: [  11    2    4    7 ]

 OEINTS: Overlap, kinetic, potential, dipole, and quadrupole integrals
         stored in file 35.

      Computing two-electron integrals...done
      Computed 11533 non-zero two-electron integrals.
        Stored in file 33.


*** tstart() called on blogin2
*** at Mon Dec 17 23:33:50 2018


	Wfn Parameters:
	--------------------
	Wavefunction         = CCSD
	Number of irreps     = 4
	Number of MOs        = 24
	Number of active MOs = 24
	AO-Basis             = NONE
	Semicanonical        = false
	Reference            = RHF
	Print Level          = 1

	IRREP	# MOs	# FZDC	# DOCC	# SOCC	# VIRT	# FZVR
	-----	-----	------	------	------	------	------
	 A1	   11	    0	    3	    0	    8	    0
	 A2	   2	    0	    0	    0	    2	    0
	 B1	   4	    0	    1	    0	    3	    0
	 B2	   7	    0	    1	    0	    6	    0
	Transforming integrals...
	IWL integrals will be deleted.
	(OO|OO)...
	Presorting SO-basis two-electron integrals.
	Sorting File: SO Ints (nn|nn) nbuckets = 1
	Transforming the one-electron integrals and constructing Fock matrices
	Starting first half-transformation.
	Sorting half-transformed integrals.
	First half integral transformation complete.
	Starting second half-transformation.
	Two-electron integral transformation complete.
	(OO|OV)...
	Starting second half-transformation.
	Two-electron integral transformation complete.
	(OO|VV)...
	Starting second half-transformation.
	Two-electron integral transformation complete.
	(OV|OO)...
	Starting first half-transformation.
	Sorting half-transformed integrals.
	First half integral transformation complete.
	Starting second half-transformation.
	Two-electron integral transformation complete.
	(OV|OV)...
	Starting second half-transformation.
	Two-electron integral transformation complete.
	(OV|VV)...
	Starting second half-transformation.
	Two-electron integral transformation complete.
	(VV|OO)...
	Starting first half-transformation.
	Sorting half-transformed integrals.
	First half integral transformation complete.
	Starting second half-transformation.
	Two-electron integral transformation complete.
	(VV|OV)...
	Starting second half-transformation.
	Two-electron integral transformation complete.
	(VV|VV)...
	Starting second half-transformation.
	Two-electron integral transformation complete.
	Frozen core energy     =      0.00000000000000

	Size of irrep 0 of <ab|cd> integrals:      0.013 (MW) /      0.102 (MB)
	Size of irrep 1 of <ab|cd> integrals:      0.005 (MW) /      0.037 (MB)
	Size of irrep 2 of <ab|cd> integrals:      0.005 (MW) /      0.041 (MB)
	Size of irrep 3 of <ab|cd> integrals:      0.012 (MW) /      0.093 (MB)
	Total:                                     0.034 (MW) /      0.274 (MB)

	Size of irrep 0 of <ia|bc> integrals:      0.004 (MW) /      0.030 (MB)
	Size of irrep 1 of <ia|bc> integrals:      0.001 (MW) /      0.008 (MB)
	Size of irrep 2 of <ia|bc> integrals:      0.001 (MW) /      0.011 (MB)
	Size of irrep 3 of <ia|bc> integrals:      0.003 (MW) /      0.024 (MB)
	Total:                                     0.009 (MW) /      0.073 (MB)

	Size of irrep 0 of tijab amplitudes:       0.001 (MW) /      0.010 (MB)
	Size of irrep 1 of tijab amplitudes:       0.000 (MW) /      0.001 (MB)
	Size of irrep 2 of tijab amplitudes:       0.000 (MW) /      0.003 (MB)
	Size of irrep 3 of tijab amplitudes:       0.001 (MW) /      0.005 (MB)
	Total:                                     0.002 (MW) /      0.020 (MB)

	Nuclear Rep. energy          =      4.23467026388158
	SCF energy                   =    -75.54572802458027
	One-electron energy          =   -113.08330739818130
	Two-electron energy          =     33.30290910971958
	Reference energy             =    -75.54572802458014

*** tstop() called on blogin2 at Mon Dec 17 23:33:50 2018
Module time:
	user time   =       0.18 seconds =       0.00 minutes
	system time =       0.02 seconds =       0.00 minutes
	total time  =          0 seconds =       0.00 minutes
Total time:
	user time   =       2.45 seconds =       0.04 minutes
	system time =       0.04 seconds =       0.00 minutes
	total time  =          1 seconds =       0.02 minutes

*** tstart() called on blogin2
*** at Mon Dec 17 23:33:50 2018

            **************************
            *                        *
            *        CCENERGY        *
            *                        *
            **************************

    Nuclear Rep. energy (wfn)     =    4.234670263881583
    SCF energy          (wfn)     =  -75.545728024580271
    Reference energy    (file100) =  -75.545728024580143

    Input parameters:
    -----------------
    Wave function   =     CCSD
    Reference wfn   =     RHF
    Brueckner       =     No
    Memory (Mbytes) =     524.3
    Maxiter         =    100
    R_Convergence   =     1.0e-07
    E_Convergence   =     1.0e-06
    Restart         =     Yes
    DIIS            =     Yes
    AO Basis        =     NONE
    ABCD            =     NEW
    Cache Level     =     2
    Cache Type      =     LOW
    Print Level     =     1
    Num. of threads =     4
    # Amps to Print =     10
    Print MP2 Amps? =     No
    Analyze T2 Amps =     No
    Print Pair Ener =     No
    Local CC        =     No
    SCS-MP2         =     False
    SCSN-MP2        =     False
    SCS-CCSD        =     False

MP2 correlation energy -0.3198911345782463
                Solving CC Amplitude Equations
                ------------------------------
  Iter             Energy              RMS        T1Diag      D1Diag    New D1Diag    D2Diag
  ----     ---------------------    ---------   ----------  ----------  ----------   --------
     0        -0.319891134578246    0.000e+00    0.000000    0.000000    0.000000    0.315394
     1        -0.282706367878396    1.803e-01    0.039102    0.093932    0.093932    0.336576
     2        -0.317858906795589    1.493e-01    0.039601    0.096872    0.096872    0.391695
     3        -0.352694395401814    8.306e-02    0.063371    0.161363    0.161363    0.491233
     4        -0.358745976735197    3.581e-02    0.068301    0.170631    0.170631    0.512245
     5        -0.363683549998857    2.081e-02    0.073531    0.187305    0.187305    0.532735
     6        -0.364471729301753    1.041e-02    0.075399    0.190932    0.190932    0.537331
     7        -0.364762629983396    7.764e-03    0.076127    0.192897    0.192897    0.540136
     8        -0.367173849128514    5.514e-03    0.077056    0.195259    0.195259    0.548300
     9        -0.366747635404266    1.889e-03    0.076276    0.193535    0.193535    0.546507
    10        -0.366899715599612    6.832e-04    0.076251    0.193505    0.193505    0.547290
    11        -0.366972891981860    2.084e-04    0.076234    0.193487    0.193487    0.547578
    12        -0.366976954305041    4.771e-05    0.076228    0.193477    0.193477    0.547585
    13        -0.366976514928051    1.861e-05    0.076225    0.193468    0.193468    0.547582
    14        -0.366973902434380    9.033e-06    0.076225    0.193468    0.193468    0.547572
    15        -0.366973857658004    2.134e-06    0.076225    0.193467    0.193467    0.547573
    16        -0.366973936789313    8.031e-07    0.076225    0.193468    0.193468    0.547573
    17        -0.366973919931379    1.703e-07    0.076225    0.193468    0.193468    0.547573
    18        -0.366973924458426    5.178e-08    0.076225    0.193468    0.193468    0.547573

    Iterations converged.


    Largest TIA Amplitudes:
              4  13        -0.1844163041
              2   0         0.1176553076
              2   2        -0.0632207793
              4  14        -0.0444924263
              2   1         0.0427649993
              4  15         0.0363033470
              1   0        -0.0224485738
              2   5        -0.0137807004
              2   3         0.0107736279
              4  17         0.0098768751

    Largest TIjAb Amplitudes:
      2   2   0   0        -0.3704965330
      4   4  13  13        -0.3386684826
      2   4  13   0        -0.2601635777
      4   2   0  13        -0.2601635777
      2   4   0  13        -0.2213983955
      4   2  13   0        -0.2213983955
      4   4   0   0        -0.1600766077
      2   2  13  13        -0.1268217118
      3   3  10  10        -0.0479361240
      2   2   0   1         0.0421807216

    SCF energy       (wfn)                    =  -75.545728024580271
    Reference energy (file100)                =  -75.545728024580143

    Opposite-spin MP2 correlation energy      =   -0.253889105467431
    Same-spin MP2 correlation energy          =   -0.066002029110815
    MP2 correlation energy                    =   -0.319891134578246
      * MP2 total energy                      =  -75.865619159158385

    Opposite-spin CCSD correlation energy     =   -0.336471047994041
    Same-spin CCSD correlation energy         =   -0.030502876464608
    CCSD correlation energy                   =   -0.366973924458426
      * CCSD total energy                     =  -75.912701949038563


*** tstop() called on blogin2 at Mon Dec 17 23:33:51 2018
Module time:
	user time   =       1.68 seconds =       0.03 minutes
	system time =       0.19 seconds =       0.00 minutes
	total time  =          1 seconds =       0.02 minutes
Total time:
	user time   =       4.13 seconds =       0.07 minutes
	system time =       0.23 seconds =       0.00 minutes
	total time  =          2 seconds =       0.03 minutes

    Psi4 stopped on: Monday, 17 December 2018 11:33PM
    Psi4 wall time for execution: 0:00:01.35

*** Psi4 exiting successfully. Buy a developer a beer!
