
 Primary working directories    : /scratch/kmoore
 Secondary working directories  : /scratch/kmoore
 Wavefunction directory         : /scratch/kmoore/
 Main file repository           : /scratch/kmoore/

 SHA1      : b6b3a4772808bb2d43777f23454e145ddfe12dc3
 NAME      : 2015.1.1
 ARCHNAME  : linux/x86_64
 FC        : /soft/mvapich2/2.2b_psm/intel-15.0/bin/mpif90
 BLASLIB   : -L/soft/intel/15.0.1/composer_xe_2015.0.090/mkl/lib/intel64 -lmkl_intel_ilp64 -lmkl_sequential -lmkl_core
 id        : anlgov

 Nodes     nprocs
 b451         3
 Number of processes for MPI-2 version of Molpro:   nprocs(total)=    4   nprocs(compute)=    3   nprocs(helper)=    1

 Using customized tuning parameters: mindgm=1; mindgv=20; mindgc=4; mindgr=1; noblas=0; minvec=7
 default implementation of scratch files=sf  

 memory,500,m
 gthresh,orbital=1.d-12
 
 angstrom
 Geometry = {
 O 0.0 0.0 -0.143225816552
 H 0.0 1.638036840407 1.136548822547
 H 0.0 -1.638036840407 1.136548822547
 }
 
 basis=cc-pVDZ
 set,spin=0
 set,charge=0
 
 {rhf,maxit=100}

 Variables initialized (889), CPU time= 0.00 sec
 Commands  initialized (702), CPU time= 0.01 sec, 572 directives.
 Default parameters read. Elapsed time= 0.07 sec

 Checking input...
 Passed
1


                                         ***  PROGRAM SYSTEM MOLPRO  ***
                                       Copyright, TTI GmbH Stuttgart, 2015
                                    Version 2015.1 linked Jan  8 2016 07:59:11


 **********************************************************************************************************************************
 LABEL *                                                                                 
  64 bit mpp version                                                                     DATE: 17-Dec-18          TIME: 23:33:52  
 **********************************************************************************************************************************

 SHA1:             b6b3a4772808bb2d43777f23454e145ddfe12dc3
 **********************************************************************************************************************************

 THRESHOLDS:

 ZERO    =  1.00D-12  ONEINT  =  1.00D-12  TWOINT  =  1.00D-11  PREFAC  =  1.00D-14  LOCALI  =  1.00D-09  EORDER  =  1.00D-04
 ENERGY  =  0.00D+00  ETEST   =  0.00D+00  EDENS   =  0.00D+00  THRDEDEF=  1.00D-06  GRADIENT=  1.00D-02  STEP    =  1.00D-03
 ORBITAL =  1.00D-12  CIVEC   =  1.00D-05  COEFF   =  1.00D-04  PRINTCI =  5.00D-02  PUNCHCI =  9.90D+01  OPTGRAD =  3.00D-04
 OPTENERG=  1.00D-06  OPTSTEP =  3.00D-04  THRGRAD =  1.00D-10  COMPRESS=  1.00D-11  VARMIN  =  1.00D-07  VARMAX  =  1.00D-03
 THRDOUB =  0.00D+00  THRDIV  =  1.00D-05  THRRED  =  1.00D-07  THRPSP  =  1.00D+00  THRDC   =  1.00D-10  THRCS   =  1.00D-10
 THRNRM  =  1.00D-08  THREQ   =  0.00D+00  THRDE   =  1.00D+00  THRREF  =  1.00D-05  SPARFAC =  1.00D+00  THRDLP  =  1.00D-07
 THRDIA  =  1.00D-10  THRDLS  =  1.00D-07  THRGPS  =  0.00D+00  THRKEX  =  0.00D+00  THRDIS  =  2.00D-01  THRVAR  =  1.00D-10
 THRLOC  =  1.00D-06  THRGAP  =  1.00D-06  THRLOCT = -1.00D+00  THRGAPT = -1.00D+00  THRORB  =  1.00D-06  THRMLTP =  0.00D+00
 THRCPQCI=  1.00D-10  KEXTA   =  0.00D+00  THRCOARS=  0.00D+00  SYMTOL  =  1.00D-06  GRADTOL =  1.00D-06  THROVL  =  1.00D-08
 THRORTH =  1.00D-08  GRID    =  1.00D-06  GRIDMAX =  1.00D-03  DTMAX   =  0.00D+00  THROCCDE=  1.00D-01  THROCCDE=  1.00D-01


 ZUNIT=ANG
 

Geometry recognized as XYZ


 Variable memory set to  500000000 words,  buffer space   230000 words

 SETTING BASIS          =    CC-PVDZ
 SETTING SPIN           =     0.00000000D+00                                  
 SETTING CHARGE         =     0.00000000D+00                                  


 Recomputing integrals since basis changed


 Using spherical harmonics

 Library entry O      S cc-pVDZ              selected for orbital group  1
 Library entry O      P cc-pVDZ              selected for orbital group  1
 Library entry O      D cc-pVDZ              selected for orbital group  1
 Library entry H      S cc-pVDZ              selected for orbital group  2
 Library entry H      P cc-pVDZ              selected for orbital group  2

1PROGRAM * SEWARD (Integral evaluation for generally contracted gaussian basis sets)     Author: Roland Lindh, 1990

 Geometry written to block  1 of record 700


 Point group  C2v 



 ATOMIC COORDINATES

 NR  ATOM    CHARGE       X              Y              Z

   1  O       8.00    0.000000000    0.000000000   -0.270657567
   2  H       1.00    0.000000000    3.095441010    2.147766002
   3  H       1.00    0.000000000   -3.095441010    2.147766002

 NUCLEAR CHARGE:                   10
 NUMBER OF PRIMITIVE AOS:          41
 NUMBER OF SYMMETRY AOS:           40
 NUMBER OF CONTRACTIONS:           24   (  11A1  +   4B1  +   7B2  +   2A2  )
 NUMBER OF CORE ORBITALS:           1   (   1A1  +   0B1  +   0B2  +   0A2  )
 NUMBER OF VALENCE ORBITALS:        6   (   3A1  +   1B1  +   2B2  +   0A2  )


 NUCLEAR REPULSION ENERGY    4.23467028

 Eigenvalues of metric

         1 0.419E-01 0.977E-01 0.186E+00 0.940E+00 0.995E+00 0.100E+01 0.100E+01 0.101E+01
         2 0.195E+00 0.996E+00 0.100E+01 0.181E+01
         3 0.833E-01 0.179E+00 0.921E+00 0.998E+00 0.101E+01 0.138E+01 0.230E+01
         4 0.997E+00 0.100E+01


 Contracted 2-electron integrals neglected if value below      1.0D-11
 AO integral compression algorithm  1   Integral accuracy      1.0D-11

     0.786 MB (compressed) written to integral file (100.0%)

     Node minimum: 0.262 MB, node maximum: 0.262 MB


 NUMBER OF SORTED TWO-ELECTRON INTEGRALS:       4533.     BUFFER LENGTH:  32768
 NUMBER OF SEGMENTS:   1  SEGMENT LENGTH:       4533      RECORD LENGTH: 524288

 Memory used in sort:       0.56 MW

 SORT1 READ       19290. AND WROTE        4208. INTEGRALS IN      1 RECORDS. CPU TIME:     0.00 SEC, REAL TIME:     0.01 SEC
 SORT2 READ       12665. AND WROTE       13826. INTEGRALS IN      3 RECORDS. CPU TIME:     0.01 SEC, REAL TIME:     0.00 SEC

 Node minimum:        4366.  Node maximum:        4927. integrals

 OPERATOR DM      FOR CENTER  0  COORDINATES:    0.000000    0.000000    0.000000


 **********************************************************************************************************************************
 DATASETS  * FILE   NREC   LENGTH (MB)   RECORD NAMES
              1      18       19.10       500      610      700      900      950      970     1000      129      960     1100   
                                          VAR    BASINP    GEOM    SYMINP    ZMAT    AOBASIS   BASIS     P2S    ABASIS      S 
                                         1400     1410     1200     1210     1080     1600     1650     1700   
                                           T        V       H0       H01     AOSYM     SMH    MOLCAS    OPER   

 PROGRAMS   *        TOTAL       INT
 CPU TIMES  *         0.22      0.11
 REAL TIME  *         0.46 SEC
 DISK USED  *        12.68 MB      
 GA USED    *         0.00 MB       (max)       0.00 MB       (current)
 **********************************************************************************************************************************

1PROGRAM * RHF-SCF (CLOSED SHELL)       Authors: W. Meyer, H.-J. Werner


 NUMBER OF ELECTRONS:       5+    5-
 CONVERGENCE THRESHOLDS:    1.00E-12 (Density)    1.00E-07 (Energy)
 MAX. NUMBER OF ITERATIONS:      100
 INTERPOLATION TYPE:            DIIS
 INTERPOLATION STEPS:              2 (START)      1 (STEP)
 LEVEL SHIFTS:                  0.00 (CLOSED)  0.00 (OPEN) 



 Orbital guess generated from atomic densities. Full valence occupancy:    4   1   2   0

 Molecular orbital dump at record        2100.2

 Initial occupancy:   3   1   1   0

 ITERATION    DDIFF          GRAD             ENERGY        2-EL.EN.            DIPOLE MOMENTS         DIIS   ORB.
    1      0.000D+00      0.000D+00       -75.17935425     77.496197    0.00000    0.00000    3.82790    0    start
    2      0.000D+00      0.821D-01       -74.57624661     51.871766    0.00000    0.00000   -3.40004    1    diag
    3      0.264D+00      0.152D+00       -75.53559859     65.547900    0.00000    0.00000    0.69520    2    diag
    4      0.165D+00      0.184D-01       -75.53848108     65.342689    0.00000    0.00000    0.53282    3    diag
    5      0.190D-01      0.153D-01       -75.54401935     66.065026    0.00000    0.00000    0.68235    4    diag
    6      0.111D-01      0.683D-02       -75.54539920     66.644897    0.00000    0.00000    0.80533    5    diag
    7      0.751D-02      0.429D-03       -75.54540735     66.659549    0.00000    0.00000    0.80665    6    diag
    8      0.521D-03      0.239D-03       -75.54541158     66.665395    0.00000    0.00000    0.80757    7    diag
    9      0.345D-03      0.180D-03       -75.54541501     66.665916    0.00000    0.00000    0.80737    8    diag
   10      0.319D-03      0.171D-03       -75.54553595     66.651311    0.00000    0.00000    0.79025    9    orth
   11      0.118D-01      0.138D-03       -75.54464048     66.478857    0.00000    0.00000    0.59762    9    diag
   12      0.663D-01      0.134D-02       -75.54529272     66.695659    0.00000    0.00000    0.82399    9    diag
   13      0.890D-01      0.125D-03       -75.54493433     66.670564    0.00000    0.00000    0.82091    9    diag
   14      0.226D-01      0.546D-03       -75.54561173     66.630998    0.00000    0.00000    0.77213    9    diag
   15      0.537D-01      0.228D-03       -75.54559509     66.546640    0.00000    0.00000    0.67945    9    diag
   16      0.358D-01      0.546D-03       -75.54571633     66.584220    0.00000    0.00000    0.71554    9    diag
   17      0.106D-01      0.200D-03       -75.54572479     66.618285    0.00000    0.00000    0.74180    9    diag
   18      0.738D-02      0.109D-03       -75.54572664     66.600003    0.00000    0.00000    0.72715    9    diag
   19      0.444D-02      0.332D-04       -75.54572721     66.610279    0.00000    0.00000    0.73666    9    fixocc
   20      0.326D-02      0.230D-04       -75.54572802     66.605513    0.00000    0.00000    0.73228    9    orth
   21      0.152D-02      0.225D-05       -75.54572803     66.605802    0.00000    0.00000    0.73251    9    diag
   22      0.700D-04      0.749D-07       -75.54572803     66.605818    0.00000    0.00000    0.73253    9    diag
   23      0.822D-05      0.212D-07       -75.54572803     66.605817    0.00000    0.00000    0.73253    9    diag
   24      0.865D-06      0.811D-08       -75.54572803     66.605818    0.00000    0.00000    0.73253    9    diag
   25      0.472D-06      0.280D-09       -75.54572803     66.605818    0.00000    0.00000    0.73253    9    diag
   26      0.278D-07      0.766D-10       -75.54572803     66.605818    0.00000    0.00000    0.73253    9    diag
   27      0.386D-08      0.135D-11       -75.54572803     66.605818    0.00000    0.00000    0.73253    9    diag
   28      0.113D-09      0.529D-13       -75.54572803     66.605818    0.00000    0.00000    0.73253    8    diag
   29      0.361D-11      0.324D-14       -75.54572803     66.605818    0.00000    0.00000    0.73253    8    diag
   30      0.254D-12      0.231D-14       -75.54572803     66.605818    0.00000    0.00000    0.73253    0    orth

 Final occupancy:   3   1   1   0

 !RHF STATE 1.1 Energy                -75.545728027289
 Nuclear energy                         4.23467028
 One-electron energy                 -113.08330745
 Two-electron energy                   33.30290914
 Virial quotient                       -1.00898849
 !RHF STATE 1.1 Dipole moment           0.00000000     0.00000000     0.73252686
 Dipole moment /Debye                   0.00000000     0.00000000     1.86177561

 Orbital energies:

         1.1          2.1          3.1          4.1          5.1
    -20.682135    -1.208778    -0.380633    -0.025412     0.606390

         1.2          2.2          3.2
     -0.521588     1.157856     1.477204

         1.3          2.3          3.3
     -0.445610    -0.049844     0.661672

         1.4          2.4
      1.447272     2.951720

 HOMO      3.1    -0.380633 =     -10.3576eV
 LUMO      2.3    -0.049844 =      -1.3563eV
 LUMO-HOMO         0.330790 =       9.0012eV


 **********************************************************************************************************************************
 DATASETS  * FILE   NREC   LENGTH (MB)   RECORD NAMES
              1      18       19.10       500      610      700      900      950      970     1000      129      960     1100   
                                          VAR    BASINP    GEOM    SYMINP    ZMAT    AOBASIS   BASIS     P2S    ABASIS      S 
                                         1400     1410     1200     1210     1080     1600     1650     1700   
                                           T        V       H0       H01     AOSYM     SMH    MOLCAS    OPER   

              2       4        0.40       700     1000      520     2100   
                                         GEOM     BASIS   MCVARS     RHF  

 PROGRAMS   *        TOTAL       RHF       INT
 CPU TIMES  *         0.23      0.01      0.11
 REAL TIME  *         0.48 SEC
 DISK USED  *        71.35 MB      
 SF USED    *         0.00 MB      
 GA USED    *         0.00 MB       (max)       0.00 MB       (current)
 **********************************************************************************************************************************

 RHF/cc-pVDZ energy=    -75.545728027289

        RHF-SCF 
    -75.54572803
 **********************************************************************************************************************************
 Variable memory released
