
Host: blogin3

Timers On : Thu Jan 10 14:15:31 2019
Timers Off: Thu Jan 10 14:15:36 2019

Wall Time:        4.29 seconds


-----------------------------------------------------------

***********************************************************

Host: blogin3

Timers On : Thu Jan 10 14:18:47 2019
Timers Off: Thu Jan 10 14:18:51 2019

Wall Time:        4.65 seconds


-----------------------------------------------------------

***********************************************************
