 --invoking executable--
/lcrc/project/PACC/brossdh/cfour_blues/bin/xinitenv
--executable xinitenv finished with status     0 in        0.05 seconds (walltime).
 --invoking executable--
/lcrc/project/PACC/brossdh/cfour_blues/bin/xjoda


   *************************************************************************
         <<<     CCCCCC     CCCCCC   |||     CCCCCC     CCCCCC   >>>
       <<<      CCC        CCC       |||    CCC        CCC         >>>
      <<<      CCC        CCC        |||   CCC        CCC            >>>
    <<<        CCC        CCC        |||   CCC        CCC              >>>
      <<<      CCC        CCC        |||   CCC        CCC            >>>
       <<<      CCC        CCC       |||    CCC        CCC         >>>
         <<<     CCCCCC     CCCCCC   |||     CCCCCC     CCCCCC   >>>
   *************************************************************************

     ****************************************************************
     * CFOUR Coupled-Cluster techniques for Computational Chemistry *
     ****************************************************************
 

   Department of Chemistry                Institut fuer Physikalische Chemie
   University of Texas at Austin          Universitaet Mainz
   Austin, TX  78712, USA                 D-55099 Mainz, Germany
 
                       Version 2.00beta
 
                     b450                                              
                     Sun Jan 13 18:19:30 CST 2019                      
                     integer*8 version is running
 
********************************************************************************
*                          Input from ZMAT file                                *
********************************************************************************
CFOUR 2.0 Computation                                                           
C          0.0000000000        0.0696643962        0.0000000000                 
H          0.0000000000        0.5136378019       -1.0016934426                 
H          0.0000000000        0.5136378019        1.0016934426                 
                                                                                
*CFOUR(CHARGE=0                                                                 
MULTIPLICITY=3                                                                  
CALC=CCSD(T)                                                                    
CC_PROG=ECC                                                                     
ABCDTYPE=AOBASIS                                                                
REFERENCE=UHF                                                                   
BASIS=PVDZ)                                                                     
                                                                                
********************************************************************************
 
     PARALLEL RUN STARTED ON            1  CORES/NODES.
 
    -------------------------------------------------------------------
                    CFOUR Control Parameters 
    -------------------------------------------------------------------
        External           Internal           Value            Units
          Name               Name
    -------------------------------------------------------------------
       ABCDTYPE             IABCDT         AOBASIS      [  2]   ***   
       ANHARMONIC           IANHAR         OFF          [  0]   ***   
       ANH_ALGORIT          IANALG         STANDARD     [  0]   ***   
       ANH_DERIVAT          IANDER         SECOND       [  1]   ***   
       ANH_STEPSIZ          ICUBST             50000          x 10-6  
       ANH_SYMMETR          IANHSM         ABELIAN      [  0]   ***   
       AO_LADDERS           IAOLAD         SINGLEPASS   [  1]   ***   
       BASIS                IBASIS         PVDZ         [ 13]   ***   
       BREIT                IBREIT         OFF          [  0]   ***   
       BRUCK_CONV           IBRTOL          10D-  4             ***   
       BRUECKNER            IBRKNR             OFF      [  0]   ***   
       BUFFERSIZE           IBUFFS            600               ***   
       CACHE_RECS           ICHREC             10               ***   
       CALCLEVEL            ICLLVL           CCSD(T)    [ 22]   ***   
       CCORBOPT             ICCORB             OFF      [  0] x 0.01  
       CC_CONV              ICCCNV          10D-  7             ***   
       CC_EXPORDER          ICCEOR              5               ***   
       CC_EXTRAPOL          ICCEXT             DIIS     [  1]   ***   
       CC_MAXCYC            ICCCYC             50              cycles 
       CC_PROGRAM           ICCPRO         ECC          [  1]   ***   
       CHARGE               ICHRGE              0               ***   
       CHOLESKY             ICHOLE         OFF          [  0]   ***   
       CIS_CONV             ICISTL              5               ***   
       COMM_SIZE            IPSIZE            ***               ***   
       CONSTANT             ICONST         OLD          [  1]   ***   
       CONTINUUM            ICONTU         NONE         [  0]   ***   
       CONTRACTION          ICNTYP          GENERAL     [  1]   ***   
       COORDINATES          ICOORD         INTERNAL     [  0]   ***   
       CPHF_CONVER          ICPHFT          10D- 16             ***   
       CPHF_MAXCYC          ICPHFC             64              cycles 
       CUBIC                ICUBIC         OFF          [  0]   ***   
       CURVILINEAR          ICURVY            OFF       [  0]   ***   
       DBOC                 IDBOC          OFF          [  0]   ***   
       DCT                  IDCT           OFF          [  0]   ***   
       DERIV_LEV            IDRLVL            ZERO      [  0]   ***   
       DIAG_MRCC            IEOMST          10D-  0             ***   
       DIFF_TYPE            IDIFTY         RELAXED      [  0]   ***   
       DIRECT               IDIRCT         OFF          [  0]   ***   
       DROPMO               IDRPMO      NONE         
       ECP                  IECP           OFF          [  0]   ***   
       EIGENVECTOR          IVEC                1               ***   
       EL_ANHARM            IELANH         OFF          [  0]   ***   
       EOMFOLLOW            IEOMSR         ENERGY       [  0]   ***   
       EOM_MRCC             IMRCCE         NEW          [  1]   ***   
       EOM_NONIT            EOMNON         OFF          [  0]   ***   
       EOM_NSING            IEOMSI          10D-  0             ***   
       EOM_NSTATES          IMRCCD         DAVIDSON     [  0]   ***   
       EOM_NTRIP            IEOMTR          10D-  0             ***   
       EOM_ORDER            IEXORD         ENERGY       [  0]   ***   
       ESTATE_CONV          IEXTOL          10D-  5             ***   
       ESTATE_DIAG          IEXDIG         ITERATIVE    [  0]   ***   
       ESTATE_LOCK          IESLOC         ON           [  1]   ***   
       ESTATE_MAXC          IEXMXC             20               ***   
       ESTATE_PROP          IEXPRP         OFF          [  0]   ***   
       EVAL_HESS            IRECAL              0            # of cyc.
       EXCITATION           IEXCIT              0               ***   
       EXCITE               IEXCIT         NONE         [  0]   ***   
       FCGRADNEW            IFCGNW         OFF          [  0]   ***   
       FC_FIELD             IFINFC              0             x 10-6  
       FD_CALTYPE           IFDCAL         GRADONLY     [  0]   ***   
       FD_PROJECT           IFDPRJ         OFF          [  1]   ***   
       FD_STEPSIZE          IDISFD              0            10-4 bohr
       FD_USEGROUP          IFDGRP         FULL         [  0]   ***   
       FILE_RECSIZ          IFLREC              4096           words  
       FINITE_PERT          IFIPER              0             x 10-6  
       FIXGEOM              IFIXGM         OFF          [  0]   ***   
       FOCK                 IFOCK          AO           [  1]   ***   
       FREQ_ALGORI          IVIALG         STANDARD     [  0]   ***   
       FROZEN_CORE          IFROCO         OFF          [  0]   ***   
       FROZEN_VIRT          IFROVI         OFF          [  0]   ***   
       GAMMA_ABCD           IGABCD         DIRECT       [  1]   ***   
       GAMMA_ABCI           IGABCI         STORE        [  0]   ***   
       GENBAS_1             IGNBS1              0               ***   
       GENBAS_2             IGNBS2              0               ***   
       GENBAS_3             IGNBS3              0               ***   
       GENBAS_4             IGNBS4              0               ***   
       GEO_CONV             ICONTL              5              H/bohr 
       GEO_MAXCYC           IOPTCY             50               ***   
       GEO_MAXSTEP          IMXSTP            300            millibohr
       GEO_METHOD           INR            SINGLE_POINT [  5]   ***   
       GIAO                 IGIAO          OFF          [  1]   ***   
       GIMIC                IGIMIC         OFF          [  0]   ***   
       GRID                 IGRID          OFF          [  0]   ***   
       GRID_ALGO            IGALGO         SERIAL       [  0]   ***   
       GUESS                IGUESS            MOREAD    [  0]   ***   
       HBAR                 IHBAR              OFF      [  0]   ***   
       HESS_TYPE            IHESTP         SCF          [  0]   ***   
       HF2_FILE             IHF2Fl         USE          [  1]   ***   
       HFSTABILITY          ISTABL         OFF          [  0]   ***   
       INCORE               INCORE             OFF      [  0]   ***   
       INPUT_MRCC           IMRCC          ON           [  1]   ***   
       INTEGRALS            INTTYP             VMOL     [  1]   ***   
       JODA_PRINT           IJPRNT              0               ***   
       LINDEP_TOL           ILINDP              8               ***   
       LINEQ_CONV           IZTACN          10D-  7           cycles  
       LINEQ_EXPOR          ILMAXD              5               ***   
       LINEQ_MAXCY          ILMAXC             50               ***   
       LINEQ_TYPE           ILTYPE         DIIS         [  1]   ***   
       LOCK_ORBOCC          ILOCOC             OFF      [  0]   ***   
       MEMORY_SIZE          IMEMSZ         100000000           words  
       MEM_UNIT             IMEMU          INTEGERWORDS [  0]   ***   
       MRCC                 IMRCCC         OFF          [  0]   ***   
       MULTIPLICTY          IMULTP              3               ***   
       NEGEVAL              IDIE             ABORT      [  0]   ***   
       NEWNORM              INEWNO         OFF          [  0]   ***   
       NON-HF               INONHF             OFF      [  0]   ***   
       NTOP_TAMP            ITOPT2             15               ***   
       NUC_MODEL            INUCMO         POINT        [  0]   ***   
       OCCUPATION           IOCCU   ESTIMATED BY SCF 
       OPEN-SHELL           IOPEN          SPIN-ORBITAL [  0]   ***   
       ORBITALS             IORBTP           STANDARD   [  0]   ***   
       PARALLEL             IPARAL         ON           [  1]   ***   
       PARA_INT             IPINTS         ON           [  1]   ***   
       PARA_PRINT           IPPRIN              0               ***   
       PERT_ORB             IPTORB         STANDARD     [  0]   ***   
       POINTS               IGRDFD              0               ***   
       PRINT                IPRNT               0               ***   
       PROPS                IPROPS             OFF      [  0]   ***   
       PROP_INTEGR          IINTYP         INTERNAL     [  0]   ***   
       PSI                  IPSI           OFF          [  0]   ***   
       QUARTIC              IQUART         OFF          [  0]   ***   
       RAMAN_INT            IRAMIN         OFF          [  0]   ***   
       RAMAN_ORB            IRAMRE         UNRELAXED    [  0]   ***   
       RDO                  IRDOFM             OFF      [  0]   ***   
       REFERENCE            IREFNC             UHF      [  1]   ***   
       RELATIVIST           IRELAT         OFF          [  0]   ***   
       RELAX_DENS           IRDENS             OFF      [  0]   ***   
       RESET_FLAGS          IRESET             OFF      [  0]   ***   
       RESTART_CC           ICCRES         OFF          [  0]   ***   
       ROT_EVEC             ROTVEC              0               ***   
       SAVE_INTS            ISVINT             OFF      [  0]   ***   
       SCALE_ON             ISTCRT              0               ***   
       SCF_CONV             ISCFCV          10D-  7             ***   
       SCF_DAMPING          IDAMP               0             x 10-3  
       SCF_EXPORDE          IRPPOR              6               ***   
       SCF_EXPSTAR          IRPPLS              8               ***   
       SCF_EXTRAPO          IRPP                ON      [  1]   ***   
       SCF_MAXCYC           ISCFCY            150              cycles 
       SCF_NOSTOP           ISCFST         OFF          [  0]   ***   
       SCF_PRINT            ISCFPR              0               ***   
       SD_FIELD             IFINSD              0             x 10-6  
       SEQUENCE             ISEQUE         OFF          [  0]   ***   
       SOPERT               IPERSO         OFF          [  0]   ***   
       SPHERICAL            IDFGHI             ON       [  1]   ***   
       SPINORBIT            ISOCAL         OFF          [  0]   ***   
       SPINROTATIO          ISRCON         OFF          [  0]   ***   
       SPIN_FLIP            ISPFLP         OFF          [  0]   ***   
       SPIN_ORBIT           ISPORB         OFF          [  0]   ***   
       SPIN_SCAL            ISCSMP         OFF          [  0]   ***   
       SUBGROUP             ISUBGP         DEFAULT      [  0]   ***   
       SUBGRPAXIS           ISBXYZ         X            [  0]   ***   
       SYMMETRY             ISYM             ON         [  0]   ***   
       SYM_CHECK            ISYMCK         OVERRIDE     [  1]   ***   
       T3_EXTRAPOL          IT3EXT         OFF          [  0]   ***   
       TAMP_SUM             IEVERY              5               ***   
       TESTSUITE            ITESTS         OFF          [  0]   ***   
       THERMOCH             ITHERM         OFF          [  0]   ***   
       TOL_CHOLESK          ITOLCH          10D-  4             ***   
       TRANGRAD             IRESRM         OFF          [  0]   ***   
       TRANS_INV            ITRAIN         USE          [  0]   ***   
       TREAT_PERT           ITREAT         SIMULTANEOUS [  0]   ***   
       UIJ_THRESHO          IUIJTH              1               ***   
       UNITS                IUNITS         ANGSTROM     [  0]   ***   
       UNOS                 IUNOS          OFF          [  0]   ***   
       UPDATE_HESS          IHUPDT         ON           [  1]   ***   
       VIBPHASE             ISETPH         STANDARD     [  0]   ***   
       VIBRATION            IVIB              NO        [  0]   ***   
       VIB_ALGORIT          IGEALG         STANDARD     [  0]   ***   
       VNATORB              IVNORB         OFF          [  0]   ***   
       VTRAN                IVTRAN         PARTIAL      [  2]   ***   
       XFIELD               IXEFLD              0             x 10-6  
       XFORM_TOL            IXFTOL          10D- 11             ***   
       YFIELD               IYEFLD              0             x 10-6  
       ZFIELD               IZEFLD              0             x 10-6  
    -------------------------------------------------------------------
   1 entries found in Z-matrix 
   Job Title : CFOUR 2.0 Computation                                                           
  1  C          6    12.00000
 factor:   60.1997200000000     
   Rotational constants (in cm-1): 

   Rotational constants (in MHz): 

********************************************************************************
   The full molecular point group is I h .
   The largest Abelian subgroup of the full molecular point group is D2h .
   The computational point group is D2h .
********************************************************************************
  There are   14 basis functions.
 @GEOPT-W, Archive file not created for single-point calculation.
  @CHECKOUT-I, Total execution time (CPU/WALL):        0.10/       0.13 seconds.
--executable xjoda finished with status     0 in        0.17 seconds (walltime).
 --invoking executable--
/lcrc/project/PACC/brossdh/cfour_blues/bin/xvmol
 Parallel version of molecule started on node            0 :
********************************************************************************
                    Input from MOL file
********************************************************************************
INTGRL        1    0    1    0    0    0    0    0    0                         
         *** CFOUR Program System (Release V0.1) ***                            
CFOUR 2.0 Computation                                                           
    1    3 X  Y   Z   0.10E-08              0    0                              
   9999.00      3.00                                                            
          6.00000000    1    3    1    1    1                                   
C #1   0.000000000000000   0.000000000000000   0.000000000000000                
    9    3                                                                      
   6665.00000000000       6.920000000000000E-004 -1.460000000000000E-004        
  0.000000000000000E+000                                                        
   1000.00000000000       5.329000000000000E-003 -1.154000000000000E-003        
  0.000000000000000E+000                                                        
   228.000000000000       2.707700000000000E-002 -5.725000000000000E-003        
  0.000000000000000E+000                                                        
   64.7100000000000       0.101718000000000      -2.331200000000000E-002        
  0.000000000000000E+000                                                        
   21.0600000000000       0.274740000000000      -6.395500000000000E-002        
  0.000000000000000E+000                                                        
   7.49500000000000       0.448564000000000      -0.149981000000000             
  0.000000000000000E+000                                                        
   2.79700000000000       0.285074000000000      -0.127262000000000             
  0.000000000000000E+000                                                        
  0.521500000000000       1.520400000000000E-002  0.544529000000000             
  0.000000000000000E+000                                                        
  0.159600000000000      -3.191000000000000E-003  0.580496000000000             
   1.00000000000000                                                             
    4    2                                                                      
   9.43900000000000       3.810900000000000E-002  0.000000000000000E+000        
   2.00200000000000       0.209480000000000       0.000000000000000E+000        
  0.545600000000000       0.508557000000000       0.000000000000000E+000        
  0.151700000000000       0.468842000000000        1.00000000000000             
    1    1                                                                      
  0.550000000000000        1.00000000000000                                     
FINISH                                                                          
 
********************************************************************************
 One- and two-electron integrals over symmetry-adapted AOs are calculated.

  Spherical harmonics are used.
  
  Integrals less than  0.10E-13 are neglected.

  Nuclear repulsion energy :    0.0000000000 a.u.
  required memory for a1 array                5013204  words 
  required memory for a2 array                2046060  words 
 @GETMEM-I,  Allocated      69 MB of main memory.
  @MOLECU-I, One electron integrals (CPU/WALL):        0.01/       0.01 seconds.
  @TWOEL-I,         79 integrals of symmetry type  I I I I
  @TWOEL-I,        250 integrals of symmetry type  I J I J
  @TWOEL-I,        221 integrals of symmetry type  I I J J
  @TWOEL-I,        226 integrals of symmetry type  I J K L
  @TWOEL-I, Total number of 2-e integrals        776.
  @MOLECU-I, Two electron integrals (CPU/WALL):        0.50/       0.05 seconds.
  @CHECKOUT-I, Total execution time (CPU/WALL):        0.52/       0.07 seconds.
--executable xvmol finished with status     0 in        0.26 seconds (walltime).
 --invoking executable--
/lcrc/project/PACC/brossdh/cfour_blues/bin/xvmol2ja
 @GETMEM-I,  Allocated     762 MB of main memory.
  @CHECKOUT-I, Total execution time (CPU/WALL):        0.00/       0.00 seconds.
--executable xvmol2ja finished with status     0 in        0.04 seconds (walltime).
 --invoking executable--
/lcrc/project/PACC/brossdh/cfour_blues/bin/xvscf
  There are   14 functions in the AO basis.

  There are 8 irreducible representations.

       Irrep        # of functions
         1                  5
         2                  2
         3                  2
         4                  1
         5                  2
         6                  1
         7                  1
         8                  0


  Parameters for SCF calculation: 
        SCF reference function:  UHF  
  Maximum number of iterations:  150
     Full symmetry point group: I h 
     Computational point group: D2h 
        Initial density matrix: CORE                   
     SCF convergence tolerance: 10**(- 7)
  DIIS convergence acceleration:  ON
          Latest start for DIIS:   8
                     DIIS order:   6

  Memory information:      49696 words required.
  Fock matrices are constructed from AO integral file.
 @GETMEM-I,  Allocated       0 MB of main memory.
  Initialization and symmetry analysis required      0.002 seconds.

  @INITGES-I, Occupancies from core Hamiltonian:

          Alpha population by irrep:   2    1    1    0    0    0    0    0
           Beta population by irrep:   2    0    0    0    0    0    0    0


 total no. of electrons in initial guess :  0.000000000000000E+000
 total no. of electrons in initial guess :  0.000000000000000E+000
  --------------------------------------------------------------------
  Iteration         Total Energy            Largest Density Difference
  --------------------------------------------------------------------
       0             0.000000000000000              0.0000000000D+00
   current occupation vector 
     2  1  1  0  0  0  0  0
     2  0  0  0  0  0  0  0
       1           -36.749955456006070              0.5061384020D+01
   current occupation vector 
     2  1  1  0  0  0  0  0
     2  0  0  0  0  0  0  0
       2           -37.680689841830322              0.4342590035D+01
   current occupation vector 
     2  1  1  0  0  0  0  0
     2  0  0  0  0  0  0  0
       3           -37.686013997747352              0.2508334699D+00
   current occupation vector 
     2  1  1  0  0  0  0  0
     2  0  0  0  0  0  0  0
       4           -37.686451100093343              0.7297179008D-01
   current occupation vector 
     2  1  1  0  0  0  0  0
     2  0  0  0  0  0  0  0
       5           -37.686543000410943              0.5503750603D-01
   current occupation vector 
     2  1  1  0  0  0  0  0
     2  0  0  0  0  0  0  0
       6           -37.686544402450032              0.4219449496D-02
   current occupation vector 
     2  1  1  0  0  0  0  0
     2  0  0  0  0  0  0  0
       7           -37.686544435876627              0.7114682865D-03
   current occupation vector 
     2  1  1  0  0  0  0  0
     2  0  0  0  0  0  0  0
       8           -37.686544437313643              0.1736974327D-03
   current occupation vector 
     2  1  1  0  0  0  0  0
     2  0  0  0  0  0  0  0
       9           -37.686544437314083              0.3176632129D-05
   current occupation vector 
     2  1  1  0  0  0  0  0
     2  0  0  0  0  0  0  0
      10           -37.686544437314105              0.2221421501D-06
   current occupation vector 
     2  1  1  0  0  0  0  0
     2  0  0  0  0  0  0  0

  SCF has converged.

 Density matrix saved to file den.dat
 total alpha spin electron number:   4.00000000000000     
 total  beta spin electron number:   2.00000000000000     
     E(SCF)=       -37.686544437314119              0.1533952076D-07

  Eigenvector printing suppressed.


       The average multiplicity is    3.0042068
  The expectation value of S**2 is    2.0063146

 @PUTMOS-I, Writing converged MOs to NEWMOS. 
 @PUTMOS-I, Symmetry   1 Full Blocks  1 Partial Blocksize   1
 @PUTMOS-I, Symmetry   2 Full Blocks  0 Partial Blocksize   2
 @PUTMOS-I, Symmetry   3 Full Blocks  0 Partial Blocksize   2
 @PUTMOS-I, Symmetry   4 Full Blocks  0 Partial Blocksize   1
 @PUTMOS-I, Symmetry   5 Full Blocks  0 Partial Blocksize   2
 @PUTMOS-I, Symmetry   6 Full Blocks  0 Partial Blocksize   1
 @PUTMOS-I, Symmetry   7 Full Blocks  0 Partial Blocksize   1
 @PUTMOS-I, Symmetry   8 Full Blocks  0 Partial Blocksize   0


 
  ORBITAL EIGENVALUES (ALPHA)  (1H = 27.2113838 eV)

       MO #        E(hartree)               E(eV)           FULLSYM    COMPSYM
       ----   --------------------   --------------------   -------   ---------
    1     1         -11.3445564499        -308.7010798200      Ag        Ag (1)
    2     2          -0.8256920183         -22.4682224254      Ag        Ag (1)
    3     8          -0.4342640027         -11.8169244560       u       B3u (3)
    4     6          -0.4342640027         -11.8169244560       u       B2u (2)
  +++++++++++++++++++++++++++++++++++++++++++++++++++++++++++++++++++++++++++++
    5    11           0.0436791411           1.1885698745      Au       B1u (5)
    6     9           0.6338735433          17.2485762803       u       B3u (3)
    7     7           0.6338735433          17.2485762803       u       B2u (2)
    8    12           0.7169800849          19.5100202810      Au       B1u (5)
    9     3           0.7191259031          19.5684109637      Ag        Ag (1)
   10     4           1.3337332401          36.2927271105       g        Ag (1)
   11    10           1.3337332401          36.2927271105       g       B1g (4)
   12    14           1.3630333443          37.0900234910       g       B2g (7)
   13    13           1.3630333443          37.0900234910       g       B3g (6)
   14     5           1.3748262310          37.4109242581      Ag        Ag (1)


 
  ORBITAL EIGENVALUES ( BETA)  (1H = 27.2113838 eV)

       MO #        E(hartree)               E(eV)           FULLSYM    COMPSYM
       ----   --------------------   --------------------   -------   ---------
    1     1         -11.2985220554        -307.4484202440      Ag        Ag (1)
    2     2          -0.5830698115         -15.8661364350      Ag        Ag (1)
  +++++++++++++++++++++++++++++++++++++++++++++++++++++++++++++++++++++++++++++
    3    11           0.0831781295           2.2633920082      Au       B1u (5)
    4     8           0.1409942588           3.8366488923       u       B3u (3)
    5     6           0.1409942588           3.8366488923       u       B2u (2)
    6    12           0.7490446271          20.3825408452      Au       B1u (5)
    7     3           0.7932940437          21.5866287058      Ag        Ag (1)
    8     7           0.8009832680          21.7958631380       u       B2u (2)
    9     9           0.8009832680          21.7958631380       u       B3u (3)
   10     4           1.4405469734          39.1992766020      Ag        Ag (1)
   11    14           1.4549735627          39.5918440623       g       B2g (7)
   12    13           1.4549735627          39.5918440623       g       B3g (6)
   13     5           1.5030912874          40.9011939361       g        Ag (1)
   14    10           1.5030912874          40.9011939361       g       B1g (4)


  VSCF finished.

  @CHECKOUT-I, Total execution time (CPU/WALL):        0.02/       0.02 seconds.
--executable xvscf finished with status     0 in        0.06 seconds (walltime).
 --invoking executable--
/lcrc/project/PACC/brossdh/cfour_blues/bin/xvtran
 @GETMEM-I,  Allocated     762 MB of main memory.
  Partial UHF integral transformation
 ! shown number of AO integrals not right ! (in parallel version)
  Transformation of IIII integrals :
  2 passes through the AO integral file were required.
          79 AO integrals were read.
          88 MO integrals (Spin case AAAA) were written to HF2AA.
          75 MO integrals (Spin case BBBB) were written to HF2BB.
         157 MO integrals (Spin case AABB) were written to HF2AB.
  Transformation of IIJJ integrals :
  2 passes through the AO integral file were required.
         221 AO integrals were read.
         160 MO integrals (Spin case AAAA) were written to HF2AA.
         104 MO integrals (Spin case BBBB) were written to HF2BB.
         268 MO integrals (Spin case AABB) were written to HF2AB.
  Transformation of IJIJ integrals :
  2 passes through the AO integral file were required.
         250 AO integrals were read.
         188 MO integrals (Spin case AAAA) were written to HF2AA.
         124 MO integrals (Spin case BBBB) were written to HF2BB.
         305 MO integrals (Spin case AABB) were written to HF2AB.
  Transformation of IJKL integrals :
  2 passes through the AO integral file were required.
         226 AO integrals were read.
         160 MO integrals (Spin case AAAA) were written to HF2AA.
          78 MO integrals (Spin case BBBB) were written to HF2BB.
         245 MO integrals (Spin case AABB) were written to HF2AB.
  Summary of active molecular orbitals: 
------------------------------------------------------------------------
                         * Spin case alpha *
 
  Index      Eigenvalue    Symmetry    Index      Eigenvalue    Symmetry
------------------------------------------------------------------------
     1       -11.3445564        1         8         0.6338735        2
     2        -0.8256920        1         9         0.6338735        3
     3        -0.4342640        2        10         1.3337332        4
     4        -0.4342640        3        11         0.0436791        5
     5         0.7191259        1        12         0.7169801        5
     6         1.3337332        1        13         1.3630333        6
     7         1.3748262        1        14         1.3630333        7
------------------------------------------------------------------------
------------------------------------------------------------------------
                         * Spin case beta *
 
  Index      Eigenvalue    Symmetry    Index      Eigenvalue    Symmetry
------------------------------------------------------------------------
     1       -11.2985221        1         8         0.1409943        3
     2        -0.5830698        1         9         0.8009833        3
     3         0.7932940        1        10         1.5030913        4
     4         1.4405470        1        11         0.0831781        5
     5         1.5030913        1        12         0.7490446        5
     6         0.1409943        2        13         1.4549736        6
     7         0.8009833        2        14         1.4549736        7
------------------------------------------------------------------------
  @CHECKOUT-I, Total execution time (CPU/WALL):        0.01/       0.01 seconds.
--executable xvtran finished with status     0 in        0.05 seconds (walltime).
 --invoking executable--
/lcrc/project/PACC/brossdh/cfour_blues/bin/xintprc
 @GETMEM-I,  Allocated     762 MB of main memory.
  @GMOIAA-I, Processing MO integrals for spin case AA.
  @GMOIAA-I, Generation of integral list completed.
                      TYPE                NUMBER
                      ----               --------
                      PPPP                     0
                      PPPH                   287
                      PPHH                   126
                      PHPH                    95
                      PHHH                    66
                      HHHH                    22

                     TOTAL                   596
  @GMOIAA-I, Processing MO integrals for spin case BB.
  @GMOIAA-I, Generation of integral list completed.
                      TYPE                NUMBER
                      ----               --------
                      PPPP                     0
                      PPPH                   256
                      PPHH                    53
                      PHPH                    50
                      PHHH                    16
                      HHHH                     6

                     TOTAL                   381
  @GMOIAB-I, Processing MO integrals for spin case AB.
                      TYPE                NUMBER
                      ----               --------
                      PPPP                     0
                      PPPH1H                 410
                      PPPH2H                 178
                      PPHH                   133
                      PHPH1P                  38
                      PHPH2P                 133
                      PHHH1P                  22
                      PHHH2P                  46
                      HHHH                    15

                     TOTAL                   975

  @FORMT2-I, Second-order MP correlation energies:
            ------------------------------------------------
            E(SCF)                  =    -37.686544437314 a.u.
            E2(AA)                  =     -0.009535177994 a.u.
            E2(BB)                  =     -0.000032684375 a.u.
            E2(AB)                  =     -0.043543128305 a.u.
            E2(TOT)                 =     -0.053110990674 a.u.
            Total MP2 energy        =    -37.739655427988 a.u.
            ------------------------------------------------
            ----------------------------------------------
                     Projected spin multiplicities: 
            ----------------------------------------------
             <0|S^2|0>                  =    2.0063145733.
             <0|S^2 T2|0>               =   -0.0030612235.
             Projected <0|S^2 exp(T)|0> =    2.0032533498.
             Approximate spin mult.     =    3.0021681164.
            ----------------------------------------------
   Largest T2 amplitudes for spin case AA:
   i   j   a   b             i   j   a   b             i   j   a   b
-----------------------------------------------------------------------------
[  4   3   9   8]-0.03388 [  4   3  10   6]-0.02643 [  3   2   8   5]-0.01976
[  4   2   9   5]-0.01976 [  4   2  14  11]-0.01547 [  3   2  13  11]-0.01547
[  4   3  14  13]-0.01300 [  3   2  13  12]-0.00612 [  4   2  14  12]-0.00612
[  4   2   9   6]-0.00385 [  4   2  10   8]-0.00385 [  3   2  10   9]-0.00385
[  3   2   8   6] 0.00385 [  3   2   8   7]-0.00251 [  4   2   9   7]-0.00251
-----------------------------------------------------------------------------
   Norm of T2AA vector (       33 symmetry allowed elements):  0.0586255125.
-----------------------------------------------------------------------------
   Largest T2 amplitudes for spin case BB:
   i   j   a   b             i   j   a   b             i   j   a   b
-----------------------------------------------------------------------------
[  2   1  12  11]-0.00095 [  2   1   7   6]-0.00091 [  2   1   9   8]-0.00091
[  2   1   4   3] 0.00000 [  0   0   0   0] 0.00000 [  0   0   0   0] 0.00000
[  0   0   0   0] 0.00000 [  0   0   0   0] 0.00000 [  0   0   0   0] 0.00000
[  0   0   0   0] 0.00000 [  0   0   0   0] 0.00000 [  0   0   0   0] 0.00000
[  0   0   0   0] 0.00000 [  0   0   0   0] 0.00000 [  0   0   0   0] 0.00000
-----------------------------------------------------------------------------
   Norm of T2BB vector (        6 symmetry allowed elements):  0.0015989251.
-----------------------------------------------------------------------------
   Largest T2 amplitudes for spin case AB:
       _       _                 _       _                 _       _
   i   j   a   b             i   j   a   b             i   j   a   b
-----------------------------------------------------------------------------
[  2   2  11  11] 0.06363 [  4   2   9   3] 0.03425 [  3   2   8   3] 0.03425
[  4   2  14  11] 0.03223 [  3   2  13  11] 0.03223 [  3   2   6   6] 0.03015
[  4   2   6   8]-0.03015 [  3   2  10   8] 0.03015 [  4   2  10   6] 0.03015
[  2   2   5   3] 0.02620 [  2   2  11  12] 0.02188 [  2   2  12  11] 0.02071
[  2   2  12  12] 0.01622 [  4   2   7   8]-0.01559 [  3   2   7   6]-0.01559
-----------------------------------------------------------------------------
   Norm of T2AB vector (      144 symmetry allowed elements):  0.1334612553.
-----------------------------------------------------------------------------
  @CHECKOUT-I, Total execution time (CPU/WALL):        0.01/       0.01 seconds.
--executable xintprc finished with status     0 in        0.05 seconds (walltime).
  calling xvcc 
 --invoking executable--
/lcrc/project/PACC/brossdh/cfour_blues/bin/xecc
 @GETMEM-I,  Allocated     762 MB of main memory.
 CCSD(T) energy will be calculated.
 AO based algorithm is used. 
 Largest T2 amplitudes for spin case AA:
    i   j   a   b             i   j   a   b             i   j   a   b
 -----------------------------------------------------------------------------
 [  4   3   9   8]-0.03388 [  4   3  10   6]-0.02643 [  3   2   8   5]-0.01976
 [  4   2   9   5]-0.01976 [  4   2  14  11]-0.01547 [  3   2  13  11]-0.01547
 [  4   3  14  13]-0.01300 [  3   2  13  12]-0.00612 [  4   2  14  12]-0.00612
 [  4   2   9   6]-0.00385 [  4   2  10   8]-0.00385 [  3   2  10   9]-0.00385
 [  3   2   8   6] 0.00385 [  3   2   8   7]-0.00251 [  4   2   9   7]-0.00251
 -----------------------------------------------------------------------------
 Norm of T2AA vector (       33 symmetry allowed elements):  0.0586255125.
 -----------------------------------------------------------------------------
 Largest T2 amplitudes for spin case BB:
    i   j   a   b             i   j   a   b             i   j   a   b
 -----------------------------------------------------------------------------
 [  2   1  12  11]-0.00095 [  2   1   7   6]-0.00091 [  2   1   9   8]-0.00091
 [  2   1   4   3] 0.00000 [  0   0   0   0] 0.00000 [  0   0   0   0] 0.00000
 [  0   0   0   0] 0.00000 [  0   0   0   0] 0.00000 [  0   0   0   0] 0.00000
 [  0   0   0   0] 0.00000 [  0   0   0   0] 0.00000 [  0   0   0   0] 0.00000
 [  0   0   0   0] 0.00000 [  0   0   0   0] 0.00000 [  0   0   0   0] 0.00000
 -----------------------------------------------------------------------------
 Norm of T2BB vector (        6 symmetry allowed elements):  0.0015989251.
 -----------------------------------------------------------------------------
 Largest T2 amplitudes for spin case AB:
        _       _                 _       _                 _       _
    i   j   a   b             i   j   a   b             i   j   a   b
 -----------------------------------------------------------------------------
 [  2   2  11  11] 0.06363 [  4   2   9   3] 0.03425 [  3   2   8   3] 0.03425
 [  4   2  14  11] 0.03223 [  3   2  13  11] 0.03223 [  3   2   6   6] 0.03015
 [  4   2   6   8]-0.03015 [  3   2  10   8] 0.03015 [  4   2  10   6] 0.03015
 [  2   2   5   3] 0.02620 [  2   2  11  12] 0.02188 [  2   2  12  11] 0.02071
 [  2   2  12  12] 0.01622 [  4   2   7   8]-0.01559 [  3   2   7   6]-0.01559
 -----------------------------------------------------------------------------
 Norm of T2AB vector (      144 symmetry allowed elements):  0.1334612553.
 -----------------------------------------------------------------------------
 The AA contribution to the correlation energy is:   -0.0095352 a.u.
 The BB contribution to the correlation energy is:   -0.0000327 a.u.
 The AB contribution to the correlation energy is:   -0.0435431 a.u.
 The total correlation energy is -0.053110990674 a.u.
 Resorts of amplitudes and integrals (CPU/WALL):       0.00/       0.00 seconds.
 Starting iterative solution of the CC equations.
 The DIIS procedure is used to accelerate convergence.
 5 expansion vectors are used in the DIIS extrapolation.
 Convergence criterium is 10**(-7).
 Maximum number of iterations is  50.
 >>>>>>>>>>>>>>>>>>>>>>>>>>>>>>>>>>>>>>>>>>>>>>>>>>>>>>>>>>>>>>>>>>>>>>>>>>>>>>>
 Iteration Nr.   1 started:
 Generation of Intermediates required (CPU/WALL):      0.00/       0.00 seconds.
 Transformation of t(ab,ij) amplitudes required    0.0 seconds.
 Contraction of t(mu nu,ij) with AO integrals required    0.0 seconds.
 Backtransformation of t(mu nu,ij) increments required    0.0 seconds.
 Construction of Hbar required (CPU/WALL):             0.00/       0.00 seconds.
 Amplitude changes are:
 -------------------------------------------------------------------
              Spin      RMS          Max.      Max. change for
  Amplitude   Case     Change       Change       i    j    a    b
 -------------------------------------------------------------------
     T1        AA    0.0008569265 0.0062910841    2         7
     T1        BB    0.0007909237-0.0045578732    2         3
     T2        AA    0.0003305486-0.0080952980    4    3    9    8
     T2        BB    0.0000263532 0.0001535211    2    1   12   11
     T2        AB    0.0003059259 0.0282921387    2    2   11   11
 -------------------------------------------------------------------
 The AA contribution to the correlation energy is:   -0.0110638 a.u.
 The BB contribution to the correlation energy is:   -0.0000302 a.u.
 The AB contribution to the correlation energy is:   -0.0558979 a.u.
 The total correlation energy is -0.066991847750 a.u.
 Convergence information after     1 iterations: 
 Largest element of residual vector :  0.28292139E-01.
 Largest element of DIIS residual   :  0.28292139E-01.
 Iteration Nr.   1 required (CPU/WALL):                0.00/       0.00 seconds.
 >>>>>>>>>>>>>>>>>>>>>>>>>>>>>>>>>>>>>>>>>>>>>>>>>>>>>>>>>>>>>>>>>>>>>>>>>>>>>>>
 Iteration Nr.   2 started:
 Generation of Intermediates required (CPU/WALL):      0.00/       0.00 seconds.
 Transformation of t(ab,ij) amplitudes required    0.0 seconds.
 Contraction of t(mu nu,ij) with AO integrals required    0.0 seconds.
 Backtransformation of t(mu nu,ij) increments required    0.0 seconds.
 Construction of Hbar required (CPU/WALL):             0.00/       0.00 seconds.
 Amplitude changes are:
 -------------------------------------------------------------------
              Spin      RMS          Max.      Max. change for
  Amplitude   Case     Change       Change       i    j    a    b
 -------------------------------------------------------------------
     T1        AA    0.0004802120 0.0035435355    2         7
     T1        BB    0.0005922275-0.0034425320    2         3
     T2        AA    0.0000780337-0.0020315852    4    3    9    8
     T2        BB    0.0000168387 0.0000922224    2    1   12   11
     T2        AB    0.0001301942 0.0142616172    2    2   11   11
 -------------------------------------------------------------------
 The AA contribution to the correlation energy is:   -0.0112171 a.u.
 The BB contribution to the correlation energy is:   -0.0000284 a.u.
 The AB contribution to the correlation energy is:   -0.0599474 a.u.
 The total correlation energy is -0.071192970346 a.u.
 Convergence information after     2 iterations: 
 Largest element of residual vector :  0.14261617E-01.
 Largest element of DIIS residual   :  0.62609608E-02.
 Iteration Nr.   2 required (CPU/WALL):                0.00/       0.00 seconds.
 >>>>>>>>>>>>>>>>>>>>>>>>>>>>>>>>>>>>>>>>>>>>>>>>>>>>>>>>>>>>>>>>>>>>>>>>>>>>>>>
 Iteration Nr.   3 started:
 Generation of Intermediates required (CPU/WALL):      0.00/       0.00 seconds.
 Transformation of t(ab,ij) amplitudes required    0.0 seconds.
 Contraction of t(mu nu,ij) with AO integrals required    0.0 seconds.
 Backtransformation of t(mu nu,ij) increments required    0.0 seconds.
 Construction of Hbar required (CPU/WALL):             0.00/       0.00 seconds.
 Amplitude changes are:
 -------------------------------------------------------------------
              Spin      RMS          Max.      Max. change for
  Amplitude   Case     Change       Change       i    j    a    b
 -------------------------------------------------------------------
     T1        AA    0.0000883237 0.0006212848    2         7
     T1        BB    0.0001837032-0.0010225335    2         3
     T2        AA    0.0000354202 0.0007280772    3    2   13   11
     T2        BB    0.0000024299 0.0000144147    2    1   12   11
     T2        AB    0.0000319101 0.0037679140    2    2   11   11
 -------------------------------------------------------------------
 The AA contribution to the correlation energy is:   -0.0111710 a.u.
 The BB contribution to the correlation energy is:   -0.0000272 a.u.
 The AB contribution to the correlation energy is:   -0.0624201 a.u.
 The total correlation energy is -0.073618243383 a.u.
 Convergence information after     3 iterations: 
 Largest element of residual vector :  0.37679140E-02.
 Largest element of DIIS residual   :  0.81707885E-03.
 Iteration Nr.   3 required (CPU/WALL):                0.00/       0.00 seconds.
 >>>>>>>>>>>>>>>>>>>>>>>>>>>>>>>>>>>>>>>>>>>>>>>>>>>>>>>>>>>>>>>>>>>>>>>>>>>>>>>
 Iteration Nr.   4 started:
 Generation of Intermediates required (CPU/WALL):      0.00/       0.00 seconds.
 Transformation of t(ab,ij) amplitudes required    0.0 seconds.
 Contraction of t(mu nu,ij) with AO integrals required    0.0 seconds.
 Backtransformation of t(mu nu,ij) increments required    0.0 seconds.
 Construction of Hbar required (CPU/WALL):             0.00/       0.00 seconds.
 Amplitude changes are:
 -------------------------------------------------------------------
              Spin      RMS          Max.      Max. change for
  Amplitude   Case     Change       Change       i    j    a    b
 -------------------------------------------------------------------
     T1        AA    0.0000135730-0.0000889421    2         7
     T1        BB    0.0000292725 0.0001346125    2         4
     T2        AA    0.0000072304-0.0001610621    4    3   10    6
     T2        BB    0.0000005272-0.0000022162    2    1    7    6
     T2        AB    0.0000040843 0.0004524027    2    2   11   11
 -------------------------------------------------------------------
 The AA contribution to the correlation energy is:   -0.0111082 a.u.
 The BB contribution to the correlation energy is:   -0.0000269 a.u.
 The AB contribution to the correlation energy is:   -0.0629089 a.u.
 The total correlation energy is -0.074044069730 a.u.
 Convergence information after     4 iterations: 
 Largest element of residual vector :  0.45240266E-03.
 Largest element of DIIS residual   :  0.12001738E-03.
 Iteration Nr.   4 required (CPU/WALL):                0.00/       0.00 seconds.
 >>>>>>>>>>>>>>>>>>>>>>>>>>>>>>>>>>>>>>>>>>>>>>>>>>>>>>>>>>>>>>>>>>>>>>>>>>>>>>>
 Iteration Nr.   5 started:
 Generation of Intermediates required (CPU/WALL):      0.00/       0.00 seconds.
 Transformation of t(ab,ij) amplitudes required    0.0 seconds.
 Contraction of t(mu nu,ij) with AO integrals required    0.0 seconds.
 Backtransformation of t(mu nu,ij) increments required    0.0 seconds.
 Construction of Hbar required (CPU/WALL):             0.00/       0.00 seconds.
 Amplitude changes are:
 -------------------------------------------------------------------
              Spin      RMS          Max.      Max. change for
  Amplitude   Case     Change       Change       i    j    a    b
 -------------------------------------------------------------------
     T1        AA    0.0000044177 0.0000210027    2         5
     T1        BB    0.0000097186 0.0000547194    2         3
     T2        AA    0.0000008001 0.0000132942    4    3    9    8
     T2        BB    0.0000001274 0.0000006814    2    1   12   11
     T2        AB    0.0000005455-0.0000280504    4    2    5    8
 -------------------------------------------------------------------
 The AA contribution to the correlation energy is:   -0.0111066 a.u.
 The BB contribution to the correlation energy is:   -0.0000269 a.u.
 The AB contribution to the correlation energy is:   -0.0629410 a.u.
 The total correlation energy is -0.074074501972 a.u.
 Convergence information after     5 iterations: 
 Largest element of residual vector :  0.54719418E-04.
 Largest element of DIIS residual   :  0.21626876E-04.
 Iteration Nr.   5 required (CPU/WALL):                0.00/       0.00 seconds.
 Largest T1 amplitudes for spin case AA:
    i       a                 i       a                 i       a    
 -----------------------------------------------------------------------------
 [  2       7    ] 0.01313 [  4       9    ]-0.00386 [  3       8    ]-0.00386
 [  2       5    ] 0.00069 [  1       5    ] 0.00022 [  1       7    ] 0.00014
 [  2       6    ] 0.00000 [  1       6    ] 0.00000 [  1       4    ] 0.00000
 [  1       4    ] 0.00000 [  1       4    ] 0.00000 [  1       4    ] 0.00000
 [  1       4    ] 0.00000 [  1       4    ] 0.00000 [  1       4    ] 0.00000
 -----------------------------------------------------------------------------
 Norm of T1AA vector (        8 symmetry allowed elements):  0.0142352798.
 -----------------------------------------------------------------------------
 Largest T2 amplitudes for spin case AA:
    i   j   a   b             i   j   a   b             i   j   a   b
 -----------------------------------------------------------------------------
 [  4   3   9   8]-0.04495 [  4   3  10   6]-0.02788 [  3   2   8   5]-0.02537
 [  4   2   9   5]-0.02537 [  4   2  14  11]-0.01552 [  3   2  13  11]-0.01552
 [  4   3  14  13]-0.01382 [  3   2  13  12]-0.00673 [  4   2  14  12]-0.00673
 [  4   2   9   6]-0.00388 [  4   2  10   8]-0.00388 [  3   2  10   9]-0.00388
 [  3   2   8   6] 0.00388 [  3   2   8   7]-0.00235 [  4   2   9   7]-0.00235
 -----------------------------------------------------------------------------
 Norm of T2AA vector (       33 symmetry allowed elements):  0.0702385372.
 -----------------------------------------------------------------------------
 Largest T1 amplitudes for spin case BB:
    i       a                 i       a                 i       a    
 -----------------------------------------------------------------------------
 [  2       3    ]-0.01179 [  2       4    ] 0.00370 [  1       3    ] 0.00027
 [  1       4    ] 0.00001 [  2       5    ] 0.00000 [  1       5    ] 0.00000
 [  1       2    ] 0.00000 [  1       2    ] 0.00000 [  1       2    ] 0.00000
 [  1       2    ] 0.00000 [  1       2    ] 0.00000 [  1       2    ] 0.00000
 [  1       2    ] 0.00000 [  1       2    ] 0.00000 [  1       2    ] 0.00000
 -----------------------------------------------------------------------------
 Norm of T1BB vector (        6 symmetry allowed elements):  0.0123616686.
 -----------------------------------------------------------------------------
 Largest T2 amplitudes for spin case BB:
    i   j   a   b             i   j   a   b             i   j   a   b
 -----------------------------------------------------------------------------
 [  2   1   9   8]-0.00083 [  2   1   7   6]-0.00083 [  2   1  12  11]-0.00062
 [  2   1   4   3] 0.00001 [  2   1   5   3] 0.00000 [  2   1   5   4]-0.00000
 [  0   0   0   0] 0.00000 [  0   0   0   0] 0.00000 [  0   0   0   0] 0.00000
 [  0   0   0   0] 0.00000 [  0   0   0   0] 0.00000 [  0   0   0   0] 0.00000
 [  0   0   0   0] 0.00000 [  0   0   0   0] 0.00000 [  0   0   0   0] 0.00000
 -----------------------------------------------------------------------------
 Norm of T2BB vector (        6 symmetry allowed elements):  0.0013319819.
 -----------------------------------------------------------------------------
 Largest T2 amplitudes for spin case AB:
        _       _                 _       _                 _       _
    i   j   a   b             i   j   a   b             i   j   a   b
 -----------------------------------------------------------------------------
 [  2   2  11  11] 0.12283 [  2   2  11  12] 0.04431 [  4   2  14  11] 0.04261
 [  3   2  13  11] 0.04261 [  2   2  12  11] 0.04126 [  3   2   6   6] 0.04082
 [  4   2   6   8]-0.04082 [  3   2  10   8] 0.04082 [  4   2  10   6] 0.04082
 [  3   2   8   3] 0.04043 [  4   2   9   3] 0.04043 [  2   2   5   3] 0.02984
 [  4   2  11  14] 0.02856 [  3   2  11  13] 0.02856 [  4   2   7   8]-0.02458
 -----------------------------------------------------------------------------
 Norm of T2AB vector (      144 symmetry allowed elements):  0.2061384148.
 -----------------------------------------------------------------------------
 >>>>>>>>>>>>>>>>>>>>>>>>>>>>>>>>>>>>>>>>>>>>>>>>>>>>>>>>>>>>>>>>>>>>>>>>>>>>>>>
 Iteration Nr.   6 started:
 Generation of Intermediates required (CPU/WALL):      0.00/       0.00 seconds.
 Transformation of t(ab,ij) amplitudes required    0.0 seconds.
 Contraction of t(mu nu,ij) with AO integrals required    0.0 seconds.
 Backtransformation of t(mu nu,ij) increments required    0.0 seconds.
 Construction of Hbar required (CPU/WALL):             0.00/       0.00 seconds.
 Amplitude changes are:
 -------------------------------------------------------------------
              Spin      RMS          Max.      Max. change for
  Amplitude   Case     Change       Change       i    j    a    b
 -------------------------------------------------------------------
     T1        AA    0.0000009597 0.0000062944    2         5
     T1        BB    0.0000000635-0.0000002875    1         3
     T2        AA    0.0000000978 0.0000018194    4    3   14   13
     T2        BB    0.0000000307-0.0000001198    2    1    7    6
     T2        AB    0.0000001870 0.0000202435    2    2   11   11
 -------------------------------------------------------------------
 The AA contribution to the correlation energy is:   -0.0111055 a.u.
 The BB contribution to the correlation energy is:   -0.0000269 a.u.
 The AB contribution to the correlation energy is:   -0.0629318 a.u.
 The total correlation energy is -0.074064251876 a.u.
 Convergence information after     6 iterations: 
 Largest element of residual vector :  0.20243489E-04.
 Largest element of DIIS residual   : -0.47107654E-05.
 Iteration Nr.   6 required (CPU/WALL):                0.00/       0.00 seconds.
 >>>>>>>>>>>>>>>>>>>>>>>>>>>>>>>>>>>>>>>>>>>>>>>>>>>>>>>>>>>>>>>>>>>>>>>>>>>>>>>
 Iteration Nr.   7 started:
 Generation of Intermediates required (CPU/WALL):      0.00/       0.00 seconds.
 Transformation of t(ab,ij) amplitudes required    0.0 seconds.
 Contraction of t(mu nu,ij) with AO integrals required    0.0 seconds.
 Backtransformation of t(mu nu,ij) increments required    0.0 seconds.
 Construction of Hbar required (CPU/WALL):             0.00/       0.00 seconds.
 Amplitude changes are:
 -------------------------------------------------------------------
              Spin      RMS          Max.      Max. change for
  Amplitude   Case     Change       Change       i    j    a    b
 -------------------------------------------------------------------
     T1        AA    0.0000002231 0.0000017198    2         5
     T1        BB    0.0000001069-0.0000005680    2         4
     T2        AA    0.0000000255 0.0000004876    4    3   10    6
     T2        BB    0.0000000029-0.0000000119    2    1    7    6
     T2        AB    0.0000000295-0.0000023013    4    2    5    8
 -------------------------------------------------------------------
 The AA contribution to the correlation energy is:   -0.0111052 a.u.
 The BB contribution to the correlation energy is:   -0.0000269 a.u.
 The AB contribution to the correlation energy is:   -0.0629355 a.u.
 The total correlation energy is -0.074067628754 a.u.
 Convergence information after     7 iterations: 
 Largest element of residual vector : -0.23013252E-05.
 Largest element of DIIS residual   : -0.16592261E-05.
 Iteration Nr.   7 required (CPU/WALL):                0.00/       0.00 seconds.
 >>>>>>>>>>>>>>>>>>>>>>>>>>>>>>>>>>>>>>>>>>>>>>>>>>>>>>>>>>>>>>>>>>>>>>>>>>>>>>>
 Iteration Nr.   8 started:
 Generation of Intermediates required (CPU/WALL):      0.00/       0.00 seconds.
 Transformation of t(ab,ij) amplitudes required    0.0 seconds.
 Contraction of t(mu nu,ij) with AO integrals required    0.0 seconds.
 Backtransformation of t(mu nu,ij) increments required    0.0 seconds.
 Construction of Hbar required (CPU/WALL):             0.00/       0.00 seconds.
 Amplitude changes are:
 -------------------------------------------------------------------
              Spin      RMS          Max.      Max. change for
  Amplitude   Case     Change       Change       i    j    a    b
 -------------------------------------------------------------------
     T1        AA    0.0000000813 0.0000005136    2         5
     T1        BB    0.0000000358-0.0000001624    2         4
     T2        AA    0.0000000039-0.0000000616    4    3   14   13
     T2        BB    0.0000000005-0.0000000022    2    1    9    8
     T2        AB    0.0000000109-0.0000008297    4    2    5    8
 -------------------------------------------------------------------
 The AA contribution to the correlation energy is:   -0.0111052 a.u.
 The BB contribution to the correlation energy is:   -0.0000269 a.u.
 The AB contribution to the correlation energy is:   -0.0629355 a.u.
 The total correlation energy is -0.074067578378 a.u.
 Convergence information after     8 iterations: 
 Largest element of residual vector : -0.82971706E-06.
 Largest element of DIIS residual   : -0.34125832E-06.
 Iteration Nr.   8 required (CPU/WALL):                0.00/       0.00 seconds.
 >>>>>>>>>>>>>>>>>>>>>>>>>>>>>>>>>>>>>>>>>>>>>>>>>>>>>>>>>>>>>>>>>>>>>>>>>>>>>>>
 Iteration Nr.   9 started:
 Generation of Intermediates required (CPU/WALL):      0.00/       0.00 seconds.
 Transformation of t(ab,ij) amplitudes required    0.0 seconds.
 Contraction of t(mu nu,ij) with AO integrals required    0.0 seconds.
 Backtransformation of t(mu nu,ij) increments required    0.0 seconds.
 Construction of Hbar required (CPU/WALL):             0.00/       0.00 seconds.
 Amplitude changes are:
 -------------------------------------------------------------------
              Spin      RMS          Max.      Max. change for
  Amplitude   Case     Change       Change       i    j    a    b
 -------------------------------------------------------------------
     T1        AA    0.0000000255-0.0000001283    4         9
     T1        BB    0.0000000057-0.0000000316    2         3
     T2        AA    0.0000000014-0.0000000309    4    3    9    8
     T2        BB    0.0000000001 0.0000000004    2    1    9    8
     T2        AB    0.0000000016-0.0000001081    3    2    5    6
 -------------------------------------------------------------------
 The AA contribution to the correlation energy is:   -0.0111052 a.u.
 The BB contribution to the correlation energy is:   -0.0000269 a.u.
 The AB contribution to the correlation energy is:   -0.0629354 a.u.
 The total correlation energy is -0.074067528537 a.u.
 Convergence information after     9 iterations: 
 Largest element of residual vector : -0.12833578E-06.
 Largest element of DIIS residual   : -0.60463385E-07.
 Iteration Nr.   9 required (CPU/WALL):                0.00/       0.00 seconds.
 >>>>>>>>>>>>>>>>>>>>>>>>>>>>>>>>>>>>>>>>>>>>>>>>>>>>>>>>>>>>>>>>>>>>>>>>>>>>>>>
 Iteration Nr.  10 started:
 Generation of Intermediates required (CPU/WALL):      0.00/       0.00 seconds.
 Transformation of t(ab,ij) amplitudes required    0.0 seconds.
 Contraction of t(mu nu,ij) with AO integrals required    0.0 seconds.
 Backtransformation of t(mu nu,ij) increments required    0.0 seconds.
 Construction of Hbar required (CPU/WALL):             0.00/       0.00 seconds.
 Amplitude changes are:
 -------------------------------------------------------------------
              Spin      RMS          Max.      Max. change for
  Amplitude   Case     Change       Change       i    j    a    b
 -------------------------------------------------------------------
     T1        AA    0.0000000051-0.0000000233    3         8
     T1        BB    0.0000000010-0.0000000061    2         3
     T2        AA    0.0000000007-0.0000000109    3    2   13   11
     T2        BB    0.0000000000-0.0000000001    2    1   12   11
     T2        AB    0.0000000003 0.0000000153    2    2   11   12
 -------------------------------------------------------------------
 The AA contribution to the correlation energy is:   -0.0111052 a.u.
 The BB contribution to the correlation energy is:   -0.0000269 a.u.
 The AB contribution to the correlation energy is:   -0.0629355 a.u.
 The total correlation energy is -0.074067536423 a.u.
 Convergence information after    10 iterations: 
 Largest element of residual vector : -0.23252779E-07.
 Largest element of DIIS residual   :  0.12233835E-07.
 Amplitude equations converged in    10 iterations.
 Iteration Nr.  10 required (CPU/WALL):                0.00/       0.00 seconds.
 The AA contribution to the correlation energy is:   -0.0111052 a.u.
 The BB contribution to the correlation energy is:   -0.0000269 a.u.
 The AB contribution to the correlation energy is:   -0.0629355 a.u.
 The total correlation energy is -0.074067537916 a.u.
            ----------------------------------------------
                     Projected spin multiplicities: 
            ----------------------------------------------
             <0|S^2|0>                  =    2.0063145733.
             <0|S^2 (T2+T1**2) |0>      =   -0.0051739244.
             <0|S^2 T1|0>               =   -0.0010991709.
             Projected <0|S^2 exp(T)|0> =    2.0000414780.
             Approximate spin mult.     =    3.0000276519.
            ----------------------------------------------
 
 Summary of iterative solution of CC equations:
 -----------------------------------------------------------
                 Correlation           Total
  Iteration        Energy              Energy
 -----------------------------------------------------------
      0     -0.0531109906742308   -37.739655427988   DIIS 
      1     -0.0669918477500923   -37.753536285064   DIIS 
      2     -0.0711929703457160   -37.757737407660   DIIS 
      3     -0.0736182433828992   -37.760162680697   DIIS 
      4     -0.0740440697296949   -37.760588507044   DIIS 
      5     -0.0740745019717863   -37.760618939286   DIIS 
      6     -0.0740642518761627   -37.760608689190   DIIS 
      7     -0.0740676287542111   -37.760612066068   DIIS 
      8     -0.0740675783783963   -37.760612015693   DIIS 
      9     -0.0740675285365822   -37.760611965851   DIIS 
     10     -0.0740675379162896   -37.760611975230   DIIS 
 -----------------------------------------------------------
 A miracle come to pass. The CC iterations have converged.
 
 Non-iterative perturbative treatment of triple
 excitations using the CCSD(T) method ...
  trp1aaa requires                    331  integer words memory.
  trp1aaa requires                    337  integer words memory.
  trp1aab requires                    729  integer words memory.
  trp1abb requires                    629  integer words memory.
 ... required                        (CPU/WALL):       0.00/       0.00 seconds.
--------------------------------------------------------------------------------
  HF-SCF energy                            -37.686544437314
  MP2 correlation energy                    -0.053110990674
  MP2 energy                               -37.739655427988
  CCSD correlation energy                   -0.074067537916
  CCSD energy                              -37.760611975230
  E4T  to CCSD(T)                           -0.000959874412
  E5ST to CCSD(T)                            0.000007942004
  E4T + E5ST                                -0.000951932408
  CCSD(T) correlation energy                -0.075019470324
--------------------------------------------------------------------------------
  CCSD(T) energy                           -37.761563907638
--------------------------------------------------------------------------------
  @CHECKOUT-I, Total execution time (CPU/WALL):        0.03/       0.03 seconds.
--executable xecc finished with status     0 in        0.06 seconds (walltime).
  The final electronic energy is       -37.761563907638184 a.u. 
  This computation required                            0.77 seconds (walltime).
