 **********************************************************************
                          MRCC program system
 **********************************************************************
 
                              Written by
  Mihaly Kallay, Zoltan Rolik, Jozsef Csontos, Peter Nagy, Gyula Samu,
      David Mester, Jozsef Csoka, Bernat Szabo, Istvan Ladjanszki,
       Lorant Szegedy, Bence Ladoczki, Klara Petrov, Mate Farkas,
                    Pal D. Mezei, and Bence Hegely
 
        Department of Physical Chemistry and Materials Science
            Budapest University of Technology and Economics
                  Budapest P.O.Box 91, H-1521 Hungary
 
                              www.mrcc.hu
 
                       Release date: May 23, 2018

 ************************ 2018-12-15 13:23:34 *************************
 Executing minp...

 Reading input from MINP...
 
 Input file:
 
basis=cc-pVDZ
scftype=RHF
calc=CCSD(T)
mem=30GB
scfiguess=sad
charge=0
mult=1
scfmaxit=300
scftol=7
cctol=7

geom=xyz
8
 
C       -0.0547158644      0.3147046187      0.0000003150                 
C        1.4644570237      0.3147044816      0.0000000576                 
H       -0.4312909325     -0.2382673772      0.8862086093                 
H       -0.4312912337     -0.1762881733     -0.9219915617                 
H       -0.4312909334      1.3586695080      0.0357840890                 
H        1.8410320919     -0.7292604082     -0.0357837106                 
H        1.8410323930      0.8056972782      0.9219919318                 
H        1.8410320928      0.8676764725     -0.8862082396   
 
 
 Checking keyword combinations...
 
 Keywords:
 
 active=none
 agrid=ld0006-ld0590
 basis=cc-pvdz
 basis_sm=none
 basopt=off
 bfbasis=none
 bpcompo=0.985
 bpcompv=0.98
 bpdfo=0.985
 bpocc=0.985
 bppdo=0.985
 bppdv=0.98
 bpedo=0.985
 bpedv=0.98
 calc=ccsd(t)
 ccmaxit=50
 ccprog=ccsd
 cctol=7
 charge=0
 cialg=auto
 ciguess=off
 cmpgrp=auto
 core=frozen
 corembed=off
 dboc=off
 dendec=cholesky
 dens=0
 dfalg=lineq
 dfbasis_cor=none
 dfbasis_scf=none
 dfintran=ovirt
 dft=off
 diag=david
 domrad=10.d0
 drpaalg=fit
 dual=off
 ecp=auto
 edisp=off
 embed=off
 epert=none
 eps=0.975
 excrad=0.d0
 excrad_fin=0.000000000D+00
 freq=off
 gauss=spher
 geom=xyz
 gopt=off
 ghost=none
 gtol=7
 grdens=off
 grtol=10
 hamilton=dc
 iface=none
 intalg=auto
 itol=11
 laptol=1.d-2
 lcorthr=loose
 lccrest=off
 lmp2dens=on
 lnoepso=0.d0
 lnoepsv=1e-6
 localcc=off
 localcorrsymm=off
 locintrf=disk
 maxact=off
 maxdim=100
 maxex=0
 mem=30gb
 molden=on
 mulmet=0
 mult=1
 nacto=0
 nactv=0
 naf_cor=off
 naf_scf=off
 nafalg=albe
 naftyp=
 nchol=auto
 ndeps=1e-3
 nstate=1
 nsing=0
 ntrip=0
 occ=
 optalg=
 optmaxit=50
 optetol=1e-6
 optgtol=1e-4
 optstol=1e-3
 orblocc=off
 orbloco=off
 orblocv=off
 orblocguess=cholesky
 osveps=1e-3
 ovirt=off
 ovltol=1e-7
 ovosnorb=80.0
 ptfreq=0.0
 popul=off
 pressure=100000
 qscf=off
 qmmm=off
 redcost_exc=off
 refdet=none
 rest=0
 rgrid=log3
 rohftype=semicanonical
 scfalg=auto
 scfdamp=off
 scfdiis=on
 scfdiis_end=300
 scfdiis_start=1
 scfdiis_step=1
 scfdtol=8
 scfext=10
 scfiguess=sad
 scflshift=off
 scfmaxit=300
 scftype=rhf
 scftol=7
 scspe=1.d0
 scsps=1.2d0
 scspt=0.33333333333333
 scspv=1.d0
 spairtol=1e-4
 symm=
 talg=occ
 temp=298.15
 test=off
 tprint=off
 uncontract=off
 unit=angs
 verbosity=2
 wpairtol=0.100000000E-05

 ************************ 2018-12-15 13:23:34 *************************
 Executing integ...

 Allocation of 30.0 Gbytes of memory...
 
 
 Number of atoms:              8
 Charge:                       0
 Number of electrons:         18
 Number of core electrons:     4
 Spin multiplicity:            1
 
                 Cartesian coordinates [bohr]      Atomic mass [AMU]  Z
   1  C    -0.10339800    0.59470554    0.00000060    12.000000       6
   2  C     2.76742270    0.59470528    0.00000011    12.000000       6
   3  H    -0.81502174   -0.45026009    1.67469156     1.007825       1
   4  H    -0.81502231   -0.33313637   -1.74231154     1.007825       1
   5  H    -0.81502174    2.56751327    0.06762213     1.007825       1
   6  H     3.47904644   -1.37810245   -0.06762141     1.007825       1
   7  H     3.47904701    1.52254720    1.74231224     1.007825       1
   8  H     3.47904644    1.63967090   -1.67469086     1.007825       1
 
 This molecule is a prolate symmetric top.
 
 Rotational constants [cm-1]: 
      2.554926416456      0.675598341796      0.675598341793
 
 Point group: D3d 
 Computational point group: C2h 
 
 Cartesian coordinates in standard orientation [bohr]
   1  C    -0.00000000   -1.43541035   -0.00000000
   2  C    -0.00000000    1.43541035   -0.00000000
   3  H     1.97396624   -2.14703428   -0.00000000
   4  H    -0.98698312   -2.14703428    1.70950491
   5  H    -0.98698312   -2.14703428   -1.70950491
   6  H     0.98698313    2.14703428    1.70950491
   7  H     0.98698311    2.14703428   -1.70950492
   8  H    -1.97396624    2.14703428    0.00000001
 
 Nuclear repulsion energy [au]:         42.036636796818
 
 
 Basis set information:
 
 Maximum angular momentum: d
 Maximum number of contracted Gaussians:    3
 Maximum number of primitive Gaussians:     9
 Spherical harmonic GTOs are used.
 
    1  C  cc-pvdz [ 9s 4p 1d | 3s 2p 1d ]
    2  C  cc-pvdz [ 9s 4p 1d | 3s 2p 1d ]
    3  H  cc-pvdz [ 4s 1p | 2s 1p ]
    4  H  cc-pvdz [ 4s 1p | 2s 1p ]
    5  H  cc-pvdz [ 4s 1p | 2s 1p ]
    6  H  cc-pvdz [ 4s 1p | 2s 1p ]
    7  H  cc-pvdz [ 4s 1p | 2s 1p ]
    8  H  cc-pvdz [ 4s 1p | 2s 1p ]
 
 Total number of basis functions:     58
 
 
 Generating initial guess for the SCF calculation...
 CPU time [min]:     0.003                   Wall time [min]:     0.023
 
 Character table for point group C2h:
 
          E  C2z  i  Qh  
    Ag    1   1   1   1
    Bg    1  -1   1  -1
    Au    1   1  -1  -1
    Bu    1  -1  -1   1
 
 Number of basis functions per irrep:
    Ag     19
    Bg     10
    Au     10
    Bu     19
 
 
 Calculation of overlap integrals...
 CPU time [min]:     0.003                   Wall time [min]:     0.023
 
 Calculation of the square root of the overlap matrix...
 Minimum eigenvalue of the overlap matrix: 0.505875E-02
 CPU time [min]:     0.004                   Wall time [min]:     0.024
 
 Calculation of kinetic energy integrals...
 CPU time [min]:     0.004                   Wall time [min]:     0.024
 Calculation of nuclear attraction integrals...
 CPU time [min]:     0.004                   Wall time [min]:     0.024
 
 Calculation of prescreening integrals...
 CPU time [min]:     0.007                   Wall time [min]:     0.024
 
 Calculation of two-electron integrals...
   1% done.
  14% done.
  31% done.
  47% done.
  70% done.
  81% done.
 100% done.
 CPU time [min]:     0.085                   Wall time [min]:     0.063

 ************************ 2018-12-15 13:23:38 *************************
 Executing scf...

 Allocation of 30.0 Gbytes of memory...
 ======================================================================
 ITERATION STEP   1
 CPU time [min]:     0.003                   Wall time [min]:     0.002
 
 ALPHA OCC:   4   1   1   3
 BETA  OCC:   4   1   1   3
 ***HARTREE-FOCK ENERGY IN STEP   1 IS     -78.7841266270384182 [AU]
 ======================================================================
 ITERATION STEP   2
 CPU time [min]:     0.009                   Wall time [min]:     0.003
 
 ALPHA OCC:   4   1   1   3
 BETA  OCC:   4   1   1   3
 ***HARTREE-FOCK ENERGY IN STEP   2 IS     -79.1735231396682337 [AU]
 ======================================================================
 ITERATION STEP   3
 CPU time [min]:     0.014                   Wall time [min]:     0.003
 
 ALPHA OCC:   4   1   1   3
 BETA  OCC:   4   1   1   3
 ***HARTREE-FOCK ENERGY IN STEP   3 IS     -79.2210975157418176 [AU]
 ======================================================================
 ITERATION STEP   4
 CPU time [min]:     0.019                   Wall time [min]:     0.004
 
 ALPHA OCC:   4   1   1   3
 BETA  OCC:   4   1   1   3
 ***HARTREE-FOCK ENERGY IN STEP   4 IS     -79.2327417407818615 [AU]
 ======================================================================
 ITERATION STEP   5
 CPU time [min]:     0.025                   Wall time [min]:     0.005
 
 ALPHA OCC:   4   1   1   3
 BETA  OCC:   4   1   1   3
 ***HARTREE-FOCK ENERGY IN STEP   5 IS     -79.2329681324723509 [AU]
 ======================================================================
 ITERATION STEP   6
 CPU time [min]:     0.030                   Wall time [min]:     0.005
 
 ALPHA OCC:   4   1   1   3
 BETA  OCC:   4   1   1   3
 ***HARTREE-FOCK ENERGY IN STEP   6 IS     -79.2329734913012658 [AU]
 ======================================================================
 ITERATION STEP   7
 CPU time [min]:     0.035                   Wall time [min]:     0.006
 
 ALPHA OCC:   4   1   1   3
 BETA  OCC:   4   1   1   3
 ***HARTREE-FOCK ENERGY IN STEP   7 IS     -79.2329735934590502 [AU]
 ======================================================================
 ITERATION STEP   8
 CPU time [min]:     0.040                   Wall time [min]:     0.007
 
 ALPHA OCC:   4   1   1   3
 BETA  OCC:   4   1   1   3
 ***HARTREE-FOCK ENERGY IN STEP   8 IS     -79.2329735945130267 [AU]
 ======================================================================
 ITERATION STEP   9
 CPU time [min]:     0.045                   Wall time [min]:     0.007
 
 ALPHA OCC:   4   1   1   3
 BETA  OCC:   4   1   1   3
 ***HARTREE-FOCK ENERGY IN STEP   9 IS     -79.2329735945306055 [AU]
 ======================================================================
 ITERATION STEP  10
 CPU time [min]:     0.050                   Wall time [min]:     0.008
 
 ALPHA OCC:   4   1   1   3
 BETA  OCC:   4   1   1   3
 ***HARTREE-FOCK ENERGY IN STEP  10 IS     -79.2329735945307476 [AU]
 ======================================================================
 ITERATION STEP  11
 CPU time [min]:     0.056                   Wall time [min]:     0.009
 
 ALPHA OCC:   4   1   1   3
 BETA  OCC:   4   1   1   3
 ***HARTREE-FOCK ENERGY IN STEP  11 IS     -79.2329735945308329 [AU]
 ======================================================================
 
 SUCCESS...
 THE SCF ITERATION HAS CONVERGED!
 
                   Ag  Bg  Au  Bu  
 FINAL ALPHA OCC:   4   1   1   3
 FINAL BETA  OCC:   4   1   1   3
 
 ***FINAL HARTREE-FOCK ENERGY:    -79.2329735945308329 [AU]
 
 RETURNING FROM SCF ALGORITHM
 ======================================================================

 ************************ 2018-12-15 13:23:39 *************************
 Executing ovirt...

 ovirt, the routine of orbital optimization and integral transformation 
Sat Dec 15 13:23:39 CST 2018
 Allocated memory:                   30720  Mb
 RHF calculation! 
 integral transforamtion: AOs ------ MOs
 # of basis functions, # of int. blocks    58     1
100 % 
 second part
100 %
 integral transformation is completed! 
CPU and WC time           2.77           0.60     AOs -> MOs 
 printing integral list for the ccsd calculations
Sat Dec 15 13:23:39 CST 2018
  ovirt terminated normally 

 ************************ 2018-12-15 13:23:40 *************************
 Executing ccsd...

 CCSD(T) calculation
 
 Convergence criterion:  1.0E-07
 
 Allocation of 30.0 Gbytes of memory...
 
 Reference energy [au]:       -79.232973594531
 MP2 energy [au]:             -79.536487157991
 
 
 Starting CCSD iterations...
 
                     Residual norm          Energy
 Iteration  1        0.147426777982      -79.563423290691
 Iteration  2        0.041056983945      -79.573146014239
 Iteration  3        0.007983393762      -79.573744749827
 Iteration  4        0.002254477725      -79.573836174164
 Iteration  5        0.000486698204      -79.573835239711
 Iteration  6        0.000127878920      -79.573839854533
 Iteration  7        0.000028980091      -79.573840282904
 Iteration  8        0.000005916618      -79.573840286613
 Iteration  9        0.000001436634      -79.573840234476
 Iteration 10        0.000000368602      -79.573840233751
 
 CCSD iteration has converged in 10 steps.
 
 T1 diagnostic:      5.898E-03            D1 diagnostic:      9.971E-03
 
 CCSD correlation energy [au]:          -0.340866639220
 Total CCSD energy [au]:               -79.573840233751
 
 CPU time [min]:     0.112                   Wall time [min]:     0.014
 
 Calculation of (T) correction...
   1% done.
  35% done.
  61% done.
  79% done.
  91% done.
 100% done.
 
 (T) correction [au]:                   -0.008448090602
 CCSD(T) correlation energy [au]:       -0.349314729822
 CCSD(T) total energy [au]:            -79.582288324353
 
 CPU time [min]:     0.128                   Wall time [min]:     0.016
 
 ************************ 2018-12-15 13:23:41 *************************
                      Normal termination of mrcc.
 **********************************************************************
