[Molden Format]                                                                 
[ATOMS] AU                                                                      
O        1    8        0.0000000000        0.0000000000        0.1250916573     
H        2    1        0.0000000000       -1.4236782147       -0.9926476870     
H        3    1        0.0000000000        1.4236782147       -0.9926476870     
[Molden Format]                                                                 
[GTO]                                                                           
  1 0
s  10 1.00
   15330.0000000000       5.080000000000000E-004                                
   2299.00000000000       3.929000000000000E-003                                
   522.400000000000       2.024300000000000E-002                                
   147.300000000000       7.918100000000000E-002                                
   47.5500000000000       0.230687000000000                                     
   16.7600000000000       0.433118000000000                                     
   6.20700000000000       0.350260000000000                                     
   1.75200000000000       4.272800000000000E-002                                
  0.688200000000000      -8.154000000000000E-003                                
  0.238400000000000       2.381000000000000E-003                                
s  10 1.00
   15330.0000000000      -1.150000000000000E-004                                
   2299.00000000000      -8.950000000000000E-004                                
   522.400000000000      -4.636000000000000E-003                                
   147.300000000000      -1.872400000000000E-002                                
   47.5500000000000      -5.846300000000000E-002                                
   16.7600000000000      -0.136463000000000                                     
   6.20700000000000      -0.175740000000000                                     
   1.75200000000000       0.160934000000000                                     
  0.688200000000000       0.603418000000000                                     
  0.238400000000000       0.378765000000000                                     
s  10 1.00
   15330.0000000000       0.000000000000000E+000                                
   2299.00000000000       0.000000000000000E+000                                
   522.400000000000       0.000000000000000E+000                                
   147.300000000000       0.000000000000000E+000                                
   47.5500000000000       0.000000000000000E+000                                
   16.7600000000000       0.000000000000000E+000                                
   6.20700000000000       0.000000000000000E+000                                
   1.75200000000000        1.00000000000000                                     
  0.688200000000000       0.000000000000000E+000                                
  0.238400000000000       0.000000000000000E+000                                
s  10 1.00
   15330.0000000000       0.000000000000000E+000                                
   2299.00000000000       0.000000000000000E+000                                
   522.400000000000       0.000000000000000E+000                                
   147.300000000000       0.000000000000000E+000                                
   47.5500000000000       0.000000000000000E+000                                
   16.7600000000000       0.000000000000000E+000                                
   6.20700000000000       0.000000000000000E+000                                
   1.75200000000000       0.000000000000000E+000                                
  0.688200000000000       0.000000000000000E+000                                
  0.238400000000000        1.00000000000000                                     
p   5 1.00
   34.4600000000000       1.592800000000000E-002                                
   7.74900000000000       9.974000000000000E-002                                
   2.28000000000000       0.310492000000000                                     
  0.715600000000000       0.491026000000000                                     
  0.214000000000000       0.336337000000000                                     
p   5 1.00
   34.4600000000000       0.000000000000000E+000                                
   7.74900000000000       0.000000000000000E+000                                
   2.28000000000000       0.000000000000000E+000                                
  0.715600000000000        1.00000000000000                                     
  0.214000000000000       0.000000000000000E+000                                
p   5 1.00
   34.4600000000000       0.000000000000000E+000                                
   7.74900000000000       0.000000000000000E+000                                
   2.28000000000000       0.000000000000000E+000                                
  0.715600000000000       0.000000000000000E+000                                
  0.214000000000000        1.00000000000000                                     
d   2 1.00
   2.31400000000000        1.00000000000000                                     
  0.645000000000000       0.000000000000000E+000                                
d   2 1.00
   2.31400000000000       0.000000000000000E+000                                
  0.645000000000000        1.00000000000000                                     
f   1 1.00
   1.42800000000000        1.00000000000000                                     
 
  2 0
s   5 1.00
   33.8700000000000       6.068000000000000E-003                                
   5.09500000000000       4.530800000000000E-002                                
   1.15900000000000       0.202822000000000                                     
  0.325800000000000       0.503903000000000                                     
  0.102700000000000       0.383421000000000                                     
s   5 1.00
   33.8700000000000       0.000000000000000E+000                                
   5.09500000000000       0.000000000000000E+000                                
   1.15900000000000       0.000000000000000E+000                                
  0.325800000000000        1.00000000000000                                     
  0.102700000000000       0.000000000000000E+000                                
s   5 1.00
   33.8700000000000       0.000000000000000E+000                                
   5.09500000000000       0.000000000000000E+000                                
   1.15900000000000       0.000000000000000E+000                                
  0.325800000000000       0.000000000000000E+000                                
  0.102700000000000        1.00000000000000                                     
p   2 1.00
   1.40700000000000        1.00000000000000                                     
  0.388000000000000       0.000000000000000E+000                                
p   2 1.00
   1.40700000000000       0.000000000000000E+000                                
  0.388000000000000        1.00000000000000                                     
d   1 1.00
   1.05700000000000        1.00000000000000                                     
 
  3 0
s   5 1.00
   33.8700000000000       6.068000000000000E-003                                
   5.09500000000000       4.530800000000000E-002                                
   1.15900000000000       0.202822000000000                                     
  0.325800000000000       0.503903000000000                                     
  0.102700000000000       0.383421000000000                                     
s   5 1.00
   33.8700000000000       0.000000000000000E+000                                
   5.09500000000000       0.000000000000000E+000                                
   1.15900000000000       0.000000000000000E+000                                
  0.325800000000000        1.00000000000000                                     
  0.102700000000000       0.000000000000000E+000                                
s   5 1.00
   33.8700000000000       0.000000000000000E+000                                
   5.09500000000000       0.000000000000000E+000                                
   1.15900000000000       0.000000000000000E+000                                
  0.325800000000000       0.000000000000000E+000                                
  0.102700000000000        1.00000000000000                                     
p   2 1.00
   1.40700000000000        1.00000000000000                                     
  0.388000000000000       0.000000000000000E+000                                
p   2 1.00
   1.40700000000000       0.000000000000000E+000                                
  0.388000000000000        1.00000000000000                                     
d   1 1.00
   1.05700000000000        1.00000000000000                                     
 
                                                                                
[MO]
 Sym= A
 Ene=  -20.5552274693263     
 Spin= Alpha
 Occup= 1.0
  1        0.9993086129
  2       -0.0010290087
  3        0.0009730637
  4       -0.0007757850
  5        0.0000000000
  6        0.0000000000
  7       -0.0049094940
  8        0.0000000000
  9        0.0000000000
 10        0.0039029619
 11        0.0000000000
 12        0.0000000000
 13        0.0017995646
 14       -0.0000304730
 15        0.0000166486
 16        0.0000138244
 17        0.0000000000
 18        0.0000000000
 19        0.0000000000
 20        0.0002967648
 21       -0.0001924214
 22       -0.0001043434
 23        0.0000000000
 24        0.0000000000
 25        0.0000000000
 26        0.0000000000
 27        0.0000000000
 28       -0.0000012284
 29        0.0000000000
 30        0.0000000000
 31       -0.0000464803
 32        0.0000000000
 33        0.0000000000
 34        0.0000501654
 35        0.0000000000
 36        0.0021275883
 37       -0.0000766912
 38       -0.0010685474
 39        0.0000000000
 40        0.0002363679
 41        0.0001265963
 42        0.0000000000
 43        0.0004437712
 44        0.0003041616
 45        0.0000239314
 46        0.0000104437
 47       -0.0000343751
 48        0.0000000000
 49        0.0000000000
 50       -0.0001228345
 51        0.0021275883
 52       -0.0000766912
 53       -0.0010685474
 54        0.0000000000
 55       -0.0002363679
 56        0.0001265963
 57        0.0000000000
 58       -0.0004437712
 59        0.0003041616
 60        0.0000239314
 61        0.0000104437
 62       -0.0000343751
 63        0.0000000000
 64        0.0000000000
 65        0.0001228345
 Sym= A
 Ene=  -1.34595674379388     
 Spin= Alpha
 Occup= 1.0
  1        0.0087948643
  2       -0.8644090314
  3        0.0065968316
  4        0.0440600733
  5        0.0000000000
  6        0.0000000000
  7        0.1158586755
  8        0.0000000000
  9        0.0000000000
 10        0.0072955087
 11        0.0000000000
 12        0.0000000000
 13       -0.0264932962
 14        0.0022072985
 15       -0.0015761260
 16       -0.0006311725
 17        0.0000000000
 18        0.0000000000
 19        0.0000000000
 20        0.0046427059
 21       -0.0028806187
 22       -0.0017620872
 23        0.0000000000
 24        0.0000000000
 25        0.0000000000
 26        0.0000000000
 27        0.0000000000
 28       -0.0002145011
 29        0.0000000000
 30        0.0000000000
 31       -0.0011032339
 32        0.0000000000
 33        0.0000000000
 34        0.0017467371
 35        0.0000000000
 36       -0.3756056462
 37        0.1161984552
 38        0.1377871063
 39        0.0000000000
 40       -0.0104680633
 41       -0.0074968207
 42        0.0000000000
 43       -0.0098444966
 44       -0.0050370349
 45        0.0006788949
 46       -0.0006980544
 47        0.0000191595
 48        0.0000000000
 49        0.0000000000
 50       -0.0019670861
 51       -0.3756056462
 52        0.1161984552
 53        0.1377871063
 54        0.0000000000
 55        0.0104680633
 56       -0.0074968207
 57        0.0000000000
 58        0.0098444966
 59       -0.0050370349
 60        0.0006788949
 61       -0.0006980544
 62        0.0000191595
 63        0.0000000000
 64        0.0000000000
 65        0.0019670861
 Sym= A
 Ene= -0.707957677046822     
 Spin= Alpha
 Occup= 1.0
  1        0.0000000000
  2        0.0000000000
  3        0.0000000000
  4        0.0000000000
  5        0.0000000000
  6        0.7309436297
  7        0.0000000000
  8        0.0000000000
  9       -0.0185904102
 10        0.0000000000
 11        0.0000000000
 12       -0.0858906416
 13        0.0000000000
 14        0.0000000000
 15        0.0000000000
 16        0.0000000000
 17        0.0000000000
 18        0.0000000000
 19       -0.0131306932
 20        0.0000000000
 21        0.0000000000
 22        0.0000000000
 23        0.0000000000
 24        0.0000000000
 25       -0.0225564178
 26        0.0000000000
 27        0.0006317576
 28        0.0000000000
 29        0.0000000000
 30       -0.0020601061
 31        0.0000000000
 32        0.0000000000
 33        0.0001648334
 34        0.0000000000
 35        0.0000000000
 36       -0.5957898657
 37        0.0803809490
 38        0.1664890751
 39        0.0000000000
 40       -0.0093479513
 41       -0.0129185402
 42        0.0000000000
 43       -0.0193273719
 44       -0.0240489623
 45        0.0021540142
 46       -0.0009533720
 47       -0.0012006422
 48        0.0000000000
 49        0.0000000000
 50       -0.0057622884
 51        0.5957898657
 52       -0.0803809490
 53       -0.1664890751
 54        0.0000000000
 55       -0.0093479513
 56        0.0129185402
 57        0.0000000000
 58       -0.0193273719
 59        0.0240489623
 60       -0.0021540142
 61        0.0009533720
 62        0.0012006422
 63        0.0000000000
 64        0.0000000000
 65       -0.0057622884
 Sym= A
 Ene= -0.579168208532024     
 Spin= Alpha
 Occup= 1.0
  1        0.0022491257
  2        0.3091258917
  3        0.0040547550
  4        0.1622200565
  5        0.0000000000
  6        0.0000000000
  7        0.8074358195
  8        0.0000000000
  9        0.0000000000
 10       -0.0146863960
 11        0.0000000000
 12        0.0000000000
 13        0.0040699255
 14        0.0032450781
 15        0.0000057130
 16       -0.0032507910
 17        0.0000000000
 18        0.0000000000
 19        0.0000000000
 20        0.0081371413
 21        0.0024139383
 22       -0.0105510796
 23        0.0000000000
 24        0.0000000000
 25        0.0000000000
 26        0.0000000000
 27        0.0000000000
 28        0.0001965469
 29        0.0000000000
 30        0.0000000000
 31       -0.0018496281
 32        0.0000000000
 33        0.0000000000
 34        0.0012599873
 35        0.0000000000
 36       -0.3633791326
 37        0.0430376733
 38        0.1132547732
 39        0.0000000000
 40       -0.0095693676
 41        0.0005938693
 42        0.0000000000
 43       -0.0215988473
 44        0.0120778519
 45        0.0010186236
 46       -0.0022804343
 47        0.0012618107
 48        0.0000000000
 49        0.0000000000
 50       -0.0007806493
 51       -0.3633791326
 52        0.0430376733
 53        0.1132547732
 54        0.0000000000
 55        0.0095693676
 56        0.0005938693
 57        0.0000000000
 58        0.0215988473
 59        0.0120778519
 60        0.0010186236
 61       -0.0022804343
 62        0.0012618107
 63        0.0000000000
 64        0.0000000000
 65        0.0007806493
 Sym= A
 Ene= -0.504687910792972     
 Spin= Alpha
 Occup= 1.0
  1        0.0000000000
  2        0.0000000000
  3        0.0000000000
  4        0.0000000000
  5        0.9228817897
  6        0.0000000000
  7        0.0000000000
  8       -0.0088430180
  9        0.0000000000
 10        0.0000000000
 11        0.0651042655
 12        0.0000000000
 13        0.0000000000
 14        0.0000000000
 15        0.0000000000
 16        0.0000000000
 17        0.0000000000
 18       -0.0052478132
 19        0.0000000000
 20        0.0000000000
 21        0.0000000000
 22        0.0000000000
 23        0.0000000000
 24       -0.0181194475
 25        0.0000000000
 26       -0.0010686066
 27        0.0000000000
 28        0.0000000000
 29        0.0021851550
 30        0.0000000000
 31        0.0000000000
 32        0.0010206648
 33        0.0000000000
 34        0.0000000000
 35        0.0000000000
 36        0.0000000000
 37        0.0000000000
 38        0.0000000000
 39        0.0100567473
 40        0.0000000000
 41        0.0000000000
 42        0.0312753134
 43        0.0000000000
 44        0.0000000000
 45        0.0000000000
 46        0.0000000000
 47        0.0000000000
 48        0.0041405633
 49        0.0028865826
 50        0.0000000000
 51        0.0000000000
 52        0.0000000000
 53        0.0000000000
 54        0.0100567473
 55        0.0000000000
 56        0.0000000000
 57        0.0312753134
 58        0.0000000000
 59        0.0000000000
 60        0.0000000000
 61        0.0000000000
 62        0.0000000000
 63       -0.0041405633
 64        0.0028865826
 65        0.0000000000
 Sym= A
 Ene=  0.142057580622068     
 Spin= Alpha
 Occup= 0.0
  1        0.0305089694
  2       -0.1766442775
  3       -0.0114631360
  4       -1.4796060472
  5        0.0000000000
  6        0.0000000000
  7        0.2053791278
  8        0.0000000000
  9        0.0000000000
 10        0.0936511898
 11        0.0000000000
 12        0.0000000000
 13        0.3929736421
 14       -0.0008876013
 15        0.0014734504
 16       -0.0005858491
 17        0.0000000000
 18        0.0000000000
 19        0.0000000000
 20        0.0281626455
 21       -0.0227468250
 22       -0.0054158205
 23        0.0000000000
 24        0.0000000000
 25        0.0000000000
 26        0.0000000000
 27        0.0000000000
 28       -0.0010760815
 29        0.0000000000
 30        0.0000000000
 31       -0.0026519877
 32        0.0000000000
 33        0.0000000000
 34        0.0058802323
 35        0.0000000000
 36        0.1135069547
 37        0.2238104410
 38        0.8769558148
 39        0.0000000000
 40       -0.0057335032
 41       -0.0016695085
 42        0.0000000000
 43        0.1425062422
 44        0.1113466837
 45       -0.0052804424
 46        0.0028971460
 47        0.0023832964
 48        0.0000000000
 49        0.0000000000
 50        0.0175599283
 51        0.1135069547
 52        0.2238104410
 53        0.8769558148
 54        0.0000000000
 55        0.0057335032
 56       -0.0016695085
 57        0.0000000000
 58       -0.1425062422
 59        0.1113466837
 60       -0.0052804424
 61        0.0028971460
 62        0.0023832964
 63        0.0000000000
 64        0.0000000000
 65       -0.0175599283
 Sym= A
 Ene=  0.204162246149373     
 Spin= Alpha
 Occup= 0.0
  1        0.0000000000
  2        0.0000000000
  3        0.0000000000
  4        0.0000000000
  5        0.0000000000
  6        0.3515167720
  7        0.0000000000
  8        0.0000000000
  9        0.0291358854
 10        0.0000000000
 11        0.0000000000
 12        0.7188564338
 13        0.0000000000
 14        0.0000000000
 15        0.0000000000
 16        0.0000000000
 17        0.0000000000
 18        0.0000000000
 19        0.0029169947
 20        0.0000000000
 21        0.0000000000
 22        0.0000000000
 23        0.0000000000
 24        0.0000000000
 25       -0.0597758290
 26        0.0000000000
 27        0.0004150008
 28        0.0000000000
 29        0.0000000000
 30       -0.0018064298
 31        0.0000000000
 32        0.0000000000
 33        0.0005614275
 34        0.0000000000
 35        0.0000000000
 36        0.0727063987
 37        0.0999733726
 38        1.7430434310
 39        0.0000000000
 40       -0.0119342224
 41       -0.0107205306
 42        0.0000000000
 43        0.1340496248
 44        0.1082579718
 45       -0.0043307396
 46        0.0046512140
 47       -0.0003204745
 48        0.0000000000
 49        0.0000000000
 50        0.0094116472
 51       -0.0727063987
 52       -0.0999733726
 53       -1.7430434310
 54        0.0000000000
 55       -0.0119342224
 56        0.0107205306
 57        0.0000000000
 58        0.1340496248
 59       -0.1082579718
 60        0.0043307396
 61       -0.0046512140
 62        0.0003204745
 63        0.0000000000
 64        0.0000000000
 65        0.0094116472
 Sym= A
 Ene=  0.542654273494810     
 Spin= Alpha
 Occup= 0.0
  1        0.0000000000
  2        0.0000000000
  3        0.0000000000
  4        0.0000000000
  5        0.0000000000
  6        0.2726257253
  7        0.0000000000
  8        0.0000000000
  9        0.1454438940
 10        0.0000000000
 11        0.0000000000
 12        1.1581855444
 13        0.0000000000
 14        0.0000000000
 15        0.0000000000
 16        0.0000000000
 17        0.0000000000
 18        0.0000000000
 19        0.0273063904
 20        0.0000000000
 21        0.0000000000
 22        0.0000000000
 23        0.0000000000
 24        0.0000000000
 25       -0.1416432233
 26        0.0000000000
 27        0.0007677737
 28        0.0000000000
 29        0.0000000000
 30       -0.0120338687
 31        0.0000000000
 32        0.0000000000
 33        0.0097305476
 34        0.0000000000
 35        0.0000000000
 36        0.4172302218
 37        1.3454652002
 38       -0.7515249018
 39        0.0000000000
 40        0.0476469975
 41        0.0304840270
 42        0.0000000000
 43        0.0441962575
 44       -0.0197495915
 45       -0.0061604662
 46        0.0086881107
 47       -0.0025276445
 48        0.0000000000
 49        0.0000000000
 50        0.0300213042
 51       -0.4172302218
 52       -1.3454652002
 53        0.7515249018
 54        0.0000000000
 55        0.0476469975
 56       -0.0304840270
 57        0.0000000000
 58        0.0441962575
 59        0.0197495915
 60        0.0061604662
 61       -0.0086881107
 62        0.0025276445
 63        0.0000000000
 64        0.0000000000
 65        0.0300213042
 Sym= A
 Ene=  0.604781725916308     
 Spin= Alpha
 Occup= 0.0
  1        0.0248163963
  2        0.3471851418
  3       -0.0284991680
  4        0.6540263375
  5        0.0000000000
  6        0.0000000000
  7       -0.2412919754
  8        0.0000000000
  9        0.0000000000
 10       -0.0431521860
 11        0.0000000000
 12        0.0000000000
 13       -0.6264181670
 14        0.0083582515
 15       -0.0115575627
 16        0.0031993112
 17        0.0000000000
 18        0.0000000000
 19        0.0000000000
 20       -0.0167928922
 21        0.0212340331
 22       -0.0044411409
 23        0.0000000000
 24        0.0000000000
 25        0.0000000000
 26        0.0000000000
 27        0.0000000000
 28        0.0024181943
 29        0.0000000000
 30        0.0000000000
 31        0.0050972109
 32        0.0000000000
 33        0.0000000000
 34       -0.0123517939
 35        0.0000000000
 36       -0.3363544613
 37       -1.2956307180
 38        0.7089796429
 39        0.0000000000
 40       -0.0313961082
 41       -0.0178265692
 42        0.0000000000
 43        0.1945365367
 44       -0.0659180786
 45        0.0084478812
 46       -0.0011866867
 47       -0.0072611944
 48        0.0000000000
 49        0.0000000000
 50       -0.0101182848
 51       -0.3363544613
 52       -1.2956307180
 53        0.7089796429
 54        0.0000000000
 55        0.0313961082
 56       -0.0178265692
 57        0.0000000000
 58       -0.1945365367
 59       -0.0659180786
 60        0.0084478812
 61       -0.0011866867
 62       -0.0072611944
 63        0.0000000000
 64        0.0000000000
 65        0.0101182848
 Sym= A
 Ene=  0.667780598950628     
 Spin= Alpha
 Occup= 0.0
  1        0.0352856048
  2        0.1270477758
  3       -0.0629292118
  4        4.5667445781
  5        0.0000000000
  6        0.0000000000
  7        0.6383875263
  8        0.0000000000
  9        0.0000000000
 10       -0.2096322247
 11        0.0000000000
 12        0.0000000000
 13       -2.8902827472
 14        0.0159372018
 15       -0.0064176507
 16       -0.0095195511
 17        0.0000000000
 18        0.0000000000
 19        0.0000000000
 20       -0.1644241725
 21        0.1120988978
 22        0.0523252747
 23        0.0000000000
 24        0.0000000000
 25        0.0000000000
 26        0.0000000000
 27        0.0000000000
 28        0.0027852044
 29        0.0000000000
 30        0.0000000000
 31        0.0112672459
 32        0.0000000000
 33        0.0000000000
 34       -0.0196228590
 35        0.0000000000
 36        0.1417347963
 37       -2.3619099943
 38       -0.5265241391
 39        0.0000000000
 40       -0.0234544679
 41       -0.0131399553
 42        0.0000000000
 43       -0.9439639138
 44       -0.6193033520
 45        0.0245519000
 46       -0.0262637048
 47        0.0017118048
 48        0.0000000000
 49        0.0000000000
 50       -0.0641335005
 51        0.1417347963
 52       -2.3619099943
 53       -0.5265241391
 54        0.0000000000
 55        0.0234544679
 56       -0.0131399553
 57        0.0000000000
 58        0.9439639138
 59       -0.6193033520
 60        0.0245519000
 61       -0.0262637048
 62        0.0017118048
 63        0.0000000000
 64        0.0000000000
 65        0.0641335005
 Sym= A
 Ene=  0.787245272469825     
 Spin= Alpha
 Occup= 0.0
  1        0.0000000000
  2        0.0000000000
  3        0.0000000000
  4        0.0000000000
  5        0.6682858060
  6        0.0000000000
  7        0.0000000000
  8        0.4444820721
  9        0.0000000000
 10        0.0000000000
 11       -1.3984032132
 12        0.0000000000
 13        0.0000000000
 14        0.0000000000
 15        0.0000000000
 16        0.0000000000
 17        0.0000000000
 18       -0.0087739630
 19        0.0000000000
 20        0.0000000000
 21        0.0000000000
 22        0.0000000000
 23        0.0000000000
 24        0.0364583737
 25        0.0000000000
 26        0.0018072463
 27        0.0000000000
 28        0.0000000000
 29       -0.0035451256
 30        0.0000000000
 31        0.0000000000
 32       -0.0018766132
 33        0.0000000000
 34        0.0000000000
 35        0.0000000000
 36        0.0000000000
 37        0.0000000000
 38        0.0000000000
 39        0.0126279090
 40        0.0000000000
 41        0.0000000000
 42       -0.0101785228
 43        0.0000000000
 44        0.0000000000
 45        0.0000000000
 46        0.0000000000
 47        0.0000000000
 48        0.0195524746
 49        0.0141380615
 50        0.0000000000
 51        0.0000000000
 52        0.0000000000
 53        0.0000000000
 54        0.0126279090
 55        0.0000000000
 56        0.0000000000
 57       -0.0101785228
 58        0.0000000000
 59        0.0000000000
 60        0.0000000000
 61        0.0000000000
 62        0.0000000000
 63       -0.0195524746
 64        0.0141380615
 65        0.0000000000
 Sym= A
 Ene=  0.796794745823857     
 Spin= Alpha
 Occup= 0.0
  1        0.0160554030
  2        0.1993888263
  3       -0.0132352399
  4        0.5522337305
  5        0.0000000000
  6        0.0000000000
  7       -0.1412969549
  8        0.0000000000
  9        0.0000000000
 10       -0.0815760527
 11        0.0000000000
 12        0.0000000000
 13       -1.2553666692
 14        0.0058302250
 15        0.0153888230
 16       -0.0212190480
 17        0.0000000000
 18        0.0000000000
 19        0.0000000000
 20       -0.0068321572
 21       -0.0753514590
 22        0.0821836162
 23        0.0000000000
 24        0.0000000000
 25        0.0000000000
 26        0.0000000000
 27        0.0000000000
 28       -0.0042352026
 29        0.0000000000
 30        0.0000000000
 31        0.0073072554
 32        0.0000000000
 33        0.0000000000
 34        0.0053983524
 35        0.0000000000
 36        0.0374924896
 37       -0.9439612871
 38        0.2398144230
 39        0.0000000000
 40        0.0213816976
 41       -0.0374096131
 42        0.0000000000
 43       -0.5290318452
 44        0.6856419715
 45        0.0026343711
 46       -0.0275817120
 47        0.0249473409
 48        0.0000000000
 49        0.0000000000
 50        0.0245622595
 51        0.0374924896
 52       -0.9439612871
 53        0.2398144230
 54        0.0000000000
 55       -0.0213816976
 56       -0.0374096131
 57        0.0000000000
 58        0.5290318452
 59        0.6856419715
 60        0.0026343711
 61       -0.0275817120
 62        0.0249473409
 63        0.0000000000
 64        0.0000000000
 65       -0.0245622595
 Sym= A
 Ene=  0.805695197965660     
 Spin= Alpha
 Occup= 0.0
  1        0.0000000000
  2        0.0000000000
  3        0.0000000000
  4        0.0000000000
  5        0.0000000000
  6        0.7157221437
  7        0.0000000000
  8        0.0000000000
  9       -0.3734074625
 10        0.0000000000
 11        0.0000000000
 12       -3.2020722477
 13        0.0000000000
 14        0.0000000000
 15        0.0000000000
 16        0.0000000000
 17        0.0000000000
 18        0.0000000000
 19       -0.0253515903
 20        0.0000000000
 21        0.0000000000
 22        0.0000000000
 23        0.0000000000
 24        0.0000000000
 25        0.4592273557
 26        0.0000000000
 27        0.0000216774
 28        0.0000000000
 29        0.0000000000
 30        0.0170762481
 31        0.0000000000
 32        0.0000000000
 33       -0.0171412804
 34        0.0000000000
 35        0.0000000000
 36        0.1258175495
 37       -1.7165006099
 38       -1.5253417673
 39        0.0000000000
 40       -0.0423433452
 41       -0.0341508470
 42        0.0000000000
 43       -0.9236498596
 44       -0.7632636633
 45        0.0311420433
 46       -0.0296004388
 47       -0.0015416045
 48        0.0000000000
 49        0.0000000000
 50       -0.0917700504
 51       -0.1258175495
 52        1.7165006099
 53        1.5253417673
 54        0.0000000000
 55       -0.0423433452
 56        0.0341508470
 57        0.0000000000
 58       -0.9236498596
 59        0.7632636633
 60       -0.0311420433