 **********************************************************************
                          MRCC program system
 **********************************************************************
 
                              Written by
  Mihaly Kallay, Zoltan Rolik, Jozsef Csontos, Peter Nagy, Gyula Samu,
      David Mester, Jozsef Csoka, Bernat Szabo, Istvan Ladjanszki,
       Lorant Szegedy, Bence Ladoczki, Klara Petrov, Mate Farkas,
                    Pal D. Mezei, and Bence Hegely
 
        Department of Physical Chemistry and Materials Science
            Budapest University of Technology and Economics
                  Budapest P.O.Box 91, H-1521 Hungary
 
                              www.mrcc.hu
 
                       Release date: May 23, 2018

 ************************ 2018-12-15 13:21:03 *************************
 Executing minp...

 Reading input from MINP...
 
 Input file:
 
basis=cc-pVTZ
scftype=RHF
calc=CCSD(T)
mem=30GB
scfiguess=sad
charge=0
mult=1
scfmaxit=300
scftol=7
cctol=7

geom=xyz
8
 
C       -0.0547158644      0.3147046187      0.0000003150                 
C        1.4644570237      0.3147044816      0.0000000576                 
H       -0.4312909325     -0.2382673772      0.8862086093                 
H       -0.4312912337     -0.1762881733     -0.9219915617                 
H       -0.4312909334      1.3586695080      0.0357840890                 
H        1.8410320919     -0.7292604082     -0.0357837106                 
H        1.8410323930      0.8056972782      0.9219919318                 
H        1.8410320928      0.8676764725     -0.8862082396   
 
 
 Checking keyword combinations...
 
 Keywords:
 
 active=none
 agrid=ld0006-ld0590
 basis=cc-pvtz
 basis_sm=none
 basopt=off
 bfbasis=none
 bpcompo=0.985
 bpcompv=0.98
 bpdfo=0.985
 bpocc=0.985
 bppdo=0.985
 bppdv=0.98
 bpedo=0.985
 bpedv=0.98
 calc=ccsd(t)
 ccmaxit=50
 ccprog=ccsd
 cctol=7
 charge=0
 cialg=auto
 ciguess=off
 cmpgrp=auto
 core=frozen
 corembed=off
 dboc=off
 dendec=cholesky
 dens=0
 dfalg=lineq
 dfbasis_cor=none
 dfbasis_scf=none
 dfintran=ovirt
 dft=off
 diag=david
 domrad=10.d0
 drpaalg=fit
 dual=off
 ecp=auto
 edisp=off
 embed=off
 epert=none
 eps=0.975
 excrad=0.d0
 excrad_fin=0.000000000D+00
 freq=off
 gauss=spher
 geom=xyz
 gopt=off
 ghost=none
 gtol=7
 grdens=off
 grtol=10
 hamilton=dc
 iface=none
 intalg=auto
 itol=11
 laptol=1.d-2
 lcorthr=loose
 lccrest=off
 lmp2dens=on
 lnoepso=0.d0
 lnoepsv=1e-6
 localcc=off
 localcorrsymm=off
 locintrf=disk
 maxact=off
 maxdim=100
 maxex=0
 mem=30gb
 molden=on
 mulmet=0
 mult=1
 nacto=0
 nactv=0
 naf_cor=off
 naf_scf=off
 nafalg=albe
 naftyp=
 nchol=auto
 ndeps=1e-3
 nstate=1
 nsing=0
 ntrip=0
 occ=
 optalg=
 optmaxit=50
 optetol=1e-6
 optgtol=1e-4
 optstol=1e-3
 orblocc=off
 orbloco=off
 orblocv=off
 orblocguess=cholesky
 osveps=1e-3
 ovirt=off
 ovltol=1e-7
 ovosnorb=80.0
 ptfreq=0.0
 popul=off
 pressure=100000
 qscf=off
 qmmm=off
 redcost_exc=off
 refdet=none
 rest=0
 rgrid=log3
 rohftype=semicanonical
 scfalg=auto
 scfdamp=off
 scfdiis=on
 scfdiis_end=300
 scfdiis_start=1
 scfdiis_step=1
 scfdtol=8
 scfext=10
 scfiguess=sad
 scflshift=off
 scfmaxit=300
 scftype=rhf
 scftol=7
 scspe=1.d0
 scsps=1.2d0
 scspt=0.33333333333333
 scspv=1.d0
 spairtol=1e-4
 symm=
 talg=occ
 temp=298.15
 test=off
 tprint=off
 uncontract=off
 unit=angs
 verbosity=2
 wpairtol=0.100000000E-05

 ************************ 2018-12-15 13:21:03 *************************
 Executing integ...

 Allocation of 30.0 Gbytes of memory...
 
 
 Number of atoms:              8
 Charge:                       0
 Number of electrons:         18
 Number of core electrons:     4
 Spin multiplicity:            1
 
                 Cartesian coordinates [bohr]      Atomic mass [AMU]  Z
   1  C    -0.10339800    0.59470554    0.00000060    12.000000       6
   2  C     2.76742270    0.59470528    0.00000011    12.000000       6
   3  H    -0.81502174   -0.45026009    1.67469156     1.007825       1
   4  H    -0.81502231   -0.33313637   -1.74231154     1.007825       1
   5  H    -0.81502174    2.56751327    0.06762213     1.007825       1
   6  H     3.47904644   -1.37810245   -0.06762141     1.007825       1
   7  H     3.47904701    1.52254720    1.74231224     1.007825       1
   8  H     3.47904644    1.63967090   -1.67469086     1.007825       1
 
 This molecule is a prolate symmetric top.
 
 Rotational constants [cm-1]: 
      2.554926416456      0.675598341796      0.675598341793
 
 Point group: D3d 
 Computational point group: C2h 
 
 Cartesian coordinates in standard orientation [bohr]
   1  C    -0.00000000   -1.43541035   -0.00000000
   2  C    -0.00000000    1.43541035   -0.00000000
   3  H     1.97396624   -2.14703428    0.00000000
   4  H    -0.98698312   -2.14703428    1.70950491
   5  H    -0.98698312   -2.14703428   -1.70950491
   6  H     0.98698313    2.14703428    1.70950491
   7  H     0.98698311    2.14703428   -1.70950492
   8  H    -1.97396624    2.14703428    0.00000001
 
 Nuclear repulsion energy [au]:         42.036636796818
 
 
 Basis set information:
 
 Maximum angular momentum: f
 Maximum number of contracted Gaussians:    4
 Maximum number of primitive Gaussians:    10
 Spherical harmonic GTOs are used.
 
    1  C  cc-pvtz [ 10s 5p 2d 1f | 4s 3p 2d 1f ]
    2  C  cc-pvtz [ 10s 5p 2d 1f | 4s 3p 2d 1f ]
    3  H  cc-pvtz [ 5s 2p 1d | 3s 2p 1d ]
    4  H  cc-pvtz [ 5s 2p 1d | 3s 2p 1d ]
    5  H  cc-pvtz [ 5s 2p 1d | 3s 2p 1d ]
    6  H  cc-pvtz [ 5s 2p 1d | 3s 2p 1d ]
    7  H  cc-pvtz [ 5s 2p 1d | 3s 2p 1d ]
    8  H  cc-pvtz [ 5s 2p 1d | 3s 2p 1d ]
 
 Total number of basis functions:    144
 
 
 Generating initial guess for the SCF calculation...
 CPU time [min]:     0.003                   Wall time [min]:     0.036
 
 Character table for point group C2h:
 
          E  C2z  i  Qh  
    Ag    1   1   1   1
    Bg    1  -1   1  -1
    Au    1   1  -1  -1
    Bu    1  -1  -1   1
 
 Number of basis functions per irrep:
    Ag     44
    Bg     28
    Au     28
    Bu     44
 
 
 Calculation of overlap integrals...
 CPU time [min]:     0.003                   Wall time [min]:     0.036
 
 Calculation of the square root of the overlap matrix...
 Minimum eigenvalue of the overlap matrix: 0.123989E-02
 CPU time [min]:     0.004                   Wall time [min]:     0.037
 
 Calculation of kinetic energy integrals...
 CPU time [min]:     0.004                   Wall time [min]:     0.037
 Calculation of nuclear attraction integrals...
 CPU time [min]:     0.005                   Wall time [min]:     0.037
 
 Calculation of prescreening integrals...
 CPU time [min]:     0.012                   Wall time [min]:     0.038
 
 Calculation of two-electron integrals...
   1% done.
  14% done.
  25% done.
  42% done.
  57% done.
  73% done.
  87% done.
 100% done.
 CPU time [min]:     0.757                   Wall time [min]:     0.138

 ************************ 2018-12-15 13:21:12 *************************
 Executing scf...

 Allocation of 30.0 Gbytes of memory...
 ======================================================================
 ITERATION STEP   1
 CPU time [min]:     0.002                   Wall time [min]:     0.002
 
 ALPHA OCC:   4   1   1   3
 BETA  OCC:   4   1   1   3
 ***HARTREE-FOCK ENERGY IN STEP   1 IS     -78.8660768542159332 [AU]
 ======================================================================
 ITERATION STEP   2
 CPU time [min]:     0.037                   Wall time [min]:     0.013
 
 ALPHA OCC:   4   1   1   3
 BETA  OCC:   4   1   1   3
 ***HARTREE-FOCK ENERGY IN STEP   2 IS     -79.2139312164462694 [AU]
 ======================================================================
 ITERATION STEP   3
 CPU time [min]:     0.072                   Wall time [min]:     0.024
 
 ALPHA OCC:   4   1   1   3
 BETA  OCC:   4   1   1   3
 ***HARTREE-FOCK ENERGY IN STEP   3 IS     -79.2478997275999575 [AU]
 ======================================================================
 ITERATION STEP   4
 CPU time [min]:     0.106                   Wall time [min]:     0.036
 
 ALPHA OCC:   4   1   1   3
 BETA  OCC:   4   1   1   3
 ***HARTREE-FOCK ENERGY IN STEP   4 IS     -79.2564549425934501 [AU]
 ======================================================================
 ITERATION STEP   5
 CPU time [min]:     0.140                   Wall time [min]:     0.047
 
 ALPHA OCC:   4   1   1   3
 BETA  OCC:   4   1   1   3
 ***HARTREE-FOCK ENERGY IN STEP   5 IS     -79.2566585444188689 [AU]
 ======================================================================
 ITERATION STEP   6
 CPU time [min]:     0.174                   Wall time [min]:     0.057
 
 ALPHA OCC:   4   1   1   3
 BETA  OCC:   4   1   1   3
 ***HARTREE-FOCK ENERGY IN STEP   6 IS     -79.2566664163034176 [AU]
 ======================================================================
 ITERATION STEP   7
 CPU time [min]:     0.208                   Wall time [min]:     0.068
 
 ALPHA OCC:   4   1   1   3
 BETA  OCC:   4   1   1   3
 ***HARTREE-FOCK ENERGY IN STEP   7 IS     -79.2566665988712344 [AU]
 ======================================================================
 ITERATION STEP   8
 CPU time [min]:     0.242                   Wall time [min]:     0.079
 
 ALPHA OCC:   4   1   1   3
 BETA  OCC:   4   1   1   3
 ***HARTREE-FOCK ENERGY IN STEP   8 IS     -79.2566666021771198 [AU]
 ======================================================================
 ITERATION STEP   9
 CPU time [min]:     0.276                   Wall time [min]:     0.090
 
 ALPHA OCC:   4   1   1   3
 BETA  OCC:   4   1   1   3
 ***HARTREE-FOCK ENERGY IN STEP   9 IS     -79.2566666022141391 [AU]
 ======================================================================
 ITERATION STEP  10
 CPU time [min]:     0.310                   Wall time [min]:     0.101
 
 ALPHA OCC:   4   1   1   3
 BETA  OCC:   4   1   1   3
 ***HARTREE-FOCK ENERGY IN STEP  10 IS     -79.2566666022149633 [AU]
 ======================================================================
 ITERATION STEP  11
 CPU time [min]:     0.345                   Wall time [min]:     0.112
 
 ALPHA OCC:   4   1   1   3
 BETA  OCC:   4   1   1   3
 ***HARTREE-FOCK ENERGY IN STEP  11 IS     -79.2566666022151480 [AU]
 ======================================================================
 
 SUCCESS...
 THE SCF ITERATION HAS CONVERGED!
 
                   Ag  Bg  Au  Bu  
 FINAL ALPHA OCC:   4   1   1   3
 FINAL BETA  OCC:   4   1   1   3
 
 ***FINAL HARTREE-FOCK ENERGY:    -79.2566666022151480 [AU]
 
 RETURNING FROM SCF ALGORITHM
 ======================================================================

 ************************ 2018-12-15 13:21:20 *************************
 Executing ovirt...

 ovirt, the routine of orbital optimization and integral transformation 
Sat Dec 15 13:21:20 CST 2018
 Allocated memory:                   30720  Mb
 RHF calculation! 
 integral transforamtion: AOs ------ MOs
 # of basis functions, # of int. blocks   144     1
100 % 
 second part
100 %
 integral transformation is completed! 
CPU and WC time          85.23          20.24     AOs -> MOs 
 printing integral list for the ccsd calculations
Sat Dec 15 13:21:48 CST 2018
  ovirt terminated normally 

 ************************ 2018-12-15 13:21:48 *************************
 Executing ccsd...

 CCSD(T) calculation
 
 Convergence criterion:  1.0E-07
 
 Allocation of 30.0 Gbytes of memory...
 
 Reference energy [au]:       -79.256666602215
 MP2 energy [au]:             -79.627477744670
 
 
 Starting CCSD iterations...
 
                     Residual norm          Energy
 Iteration  1        0.173150183259      -79.648073655770
 Iteration  2        0.042952730156      -79.657825398714
 Iteration  3        0.011522447323      -79.658792403555
 Iteration  4        0.002626241361      -79.658827024837
 Iteration  5        0.000557927343      -79.658828721776
 Iteration  6        0.000158258833      -79.658832126634
 Iteration  7        0.000038005336      -79.658832403138
 Iteration  8        0.000010092067      -79.658832659028
 Iteration  9        0.000002243355      -79.658832583074
 Iteration 10        0.000000594539      -79.658832569811
 
 CCSD iteration has converged in 10 steps.
 
 T1 diagnostic:      7.719E-03            D1 diagnostic:      1.307E-02
 
 CCSD correlation energy [au]:          -0.402165967596
 Total CCSD energy [au]:               -79.658832569811
 
 CPU time [min]:     1.895                   Wall time [min]:     0.294
 
 Calculation of (T) correction...
   1% done.
  35% done.
  61% done.
  79% done.
  91% done.
 100% done.
 
 (T) correction [au]:                   -0.013677414700
 CCSD(T) correlation energy [au]:       -0.415843382296
 CCSD(T) total energy [au]:            -79.672509984511
 
 CPU time [min]:     2.238                   Wall time [min]:     0.339
 
 ************************ 2018-12-15 13:22:08 *************************
                      Normal termination of mrcc.
 **********************************************************************
