
 Primary working directories    : /scratch/copan
 Secondary working directories  : /scratch/copan
 Wavefunction directory         : /scratch/copan/
 Main file repository           : /scratch/copan/

 SHA1      : b6b3a4772808bb2d43777f23454e145ddfe12dc3
 NAME      : 2015.1.1
 ARCHNAME  : linux/x86_64
 FC        : /soft/mvapich2/2.2b_psm/intel-15.0/bin/mpif90
 BLASLIB   : -L/soft/intel/15.0.1/composer_xe_2015.0.090/mkl/lib/intel64 -lmkl_intel_ilp64 -lmkl_sequential -lmkl_core
 id        : anlgov

 Nodes     nprocs
 b440         3
 Number of processes for MPI-2 version of Molpro:   nprocs(total)=    4   nprocs(compute)=    3   nprocs(helper)=    1

 Using customized tuning parameters: mindgm=1; mindgv=20; mindgc=4; mindgr=1; noblas=0; minvec=7
 default implementation of scratch files=sf  

 memory,500,m
 gthresh,orbital=1.d-12
 
 angstrom
 Geometry = {
 O 0.0 0.0 -0.143225816552
 H 0.0 1.638036840407 1.136548822547
 H 0.0 -1.638036840407 1.136548822547
 }
 
 basis=6-31g
 set,spin=1
 set,charge=1
 
 {rhf,maxit=100}
 
 {uccsd,maxit=100}

 Variables initialized (889), CPU time= 0.02 sec
 Commands  initialized (702), CPU time= 0.01 sec, 572 directives.
 Default parameters read. Elapsed time= 0.12 sec

 Checking input...
 Passed
1


                                         ***  PROGRAM SYSTEM MOLPRO  ***
                                       Copyright, TTI GmbH Stuttgart, 2015
                                    Version 2015.1 linked Jan  8 2016 07:59:11


 **********************************************************************************************************************************
 LABEL *                                                                                 
  64 bit mpp version                                                                     DATE: 19-Nov-18          TIME: 15:41:27  
 **********************************************************************************************************************************

 SHA1:             b6b3a4772808bb2d43777f23454e145ddfe12dc3
 **********************************************************************************************************************************

 THRESHOLDS:

 ZERO    =  1.00D-12  ONEINT  =  1.00D-12  TWOINT  =  1.00D-11  PREFAC  =  1.00D-14  LOCALI  =  1.00D-09  EORDER  =  1.00D-04
 ENERGY  =  0.00D+00  ETEST   =  0.00D+00  EDENS   =  0.00D+00  THRDEDEF=  1.00D-06  GRADIENT=  1.00D-02  STEP    =  1.00D-03
 ORBITAL =  1.00D-12  CIVEC   =  1.00D-05  COEFF   =  1.00D-04  PRINTCI =  5.00D-02  PUNCHCI =  9.90D+01  OPTGRAD =  3.00D-04
 OPTENERG=  1.00D-06  OPTSTEP =  3.00D-04  THRGRAD =  1.00D-10  COMPRESS=  1.00D-11  VARMIN  =  1.00D-07  VARMAX  =  1.00D-03
 THRDOUB =  0.00D+00  THRDIV  =  1.00D-05  THRRED  =  1.00D-07  THRPSP  =  1.00D+00  THRDC   =  1.00D-10  THRCS   =  1.00D-10
 THRNRM  =  1.00D-08  THREQ   =  0.00D+00  THRDE   =  1.00D+00  THRREF  =  1.00D-05  SPARFAC =  1.00D+00  THRDLP  =  1.00D-07
 THRDIA  =  1.00D-10  THRDLS  =  1.00D-07  THRGPS  =  0.00D+00  THRKEX  =  0.00D+00  THRDIS  =  2.00D-01  THRVAR  =  1.00D-10
 THRLOC  =  1.00D-06  THRGAP  =  1.00D-06  THRLOCT = -1.00D+00  THRGAPT = -1.00D+00  THRORB  =  1.00D-06  THRMLTP =  0.00D+00
 THRCPQCI=  1.00D-10  KEXTA   =  0.00D+00  THRCOARS=  0.00D+00  SYMTOL  =  1.00D-06  GRADTOL =  1.00D-06  THROVL  =  1.00D-08
 THRORTH =  1.00D-08  GRID    =  1.00D-06  GRIDMAX =  1.00D-03  DTMAX   =  0.00D+00  THROCCDE=  1.00D-01  THROCCDE=  1.00D-01


 ZUNIT=ANG
 

Geometry recognized as XYZ


 Variable memory set to  500000000 words,  buffer space   230000 words

 SETTING BASIS          =    6-31G
 SETTING SPIN           =         1.00000000                                  
 SETTING CHARGE         =         1.00000000                                  


 Recomputing integrals since basis changed


 Using spherical harmonics

 Library entry O      S 6-31G                selected for orbital group  1
 Library entry O      P 6-31G                selected for orbital group  1
 Library entry H      S 6-31G                selected for orbital group  2

1PROGRAM * SEWARD (Integral evaluation for generally contracted gaussian basis sets)     Author: Roland Lindh, 1990

 Geometry written to block  1 of record 700


 Point group  C2v 



 ATOMIC COORDINATES

 NR  ATOM    CHARGE       X              Y              Z

   1  O       8.00    0.000000000    0.000000000   -0.270657567
   2  H       1.00    0.000000000    3.095441010    2.147766002
   3  H       1.00    0.000000000   -3.095441010    2.147766002

 NUCLEAR CHARGE:                   10
 NUMBER OF PRIMITIVE AOS:          30
 NUMBER OF SYMMETRY AOS:           30
 NUMBER OF CONTRACTIONS:           13   (   7A1  +   2B1  +   4B2  +   0A2  )
 NUMBER OF CORE ORBITALS:           1   (   1A1  +   0B1  +   0B2  +   0A2  )
 NUMBER OF VALENCE ORBITALS:        6   (   3A1  +   1B1  +   2B2  +   0A2  )


 NUCLEAR REPULSION ENERGY    4.23467028

 Eigenvalues of metric

         1 0.189E+00 0.344E+00 0.499E+00 0.907E+00 0.136E+01 0.169E+01 0.206E+01
         2 0.498E+00 0.150E+01
         3 0.271E+00 0.498E+00 0.132E+01 0.187E+01


 Contracted 2-electron integrals neglected if value below      1.0D-11
 AO integral compression algorithm  1   Integral accuracy      1.0D-11

     0.786 MB (compressed) written to integral file (100.0%)

     Node minimum: 0.262 MB, node maximum: 0.262 MB


 NUMBER OF SORTED TWO-ELECTRON INTEGRALS:        519.     BUFFER LENGTH:  32768
 NUMBER OF SEGMENTS:   1  SEGMENT LENGTH:        519      RECORD LENGTH: 524288

 Memory used in sort:       0.56 MW

 SORT1 READ        2623. AND WROTE         464. INTEGRALS IN      1 RECORDS. CPU TIME:     0.00 SEC, REAL TIME:     0.01 SEC
 SORT2 READ        1487. AND WROTE        1649. INTEGRALS IN      3 RECORDS. CPU TIME:     0.00 SEC, REAL TIME:     0.00 SEC

 Node minimum:         506.  Node maximum:         624. integrals

 OPERATOR DM      FOR CENTER  0  COORDINATES:    0.000000    0.000000    0.000000


 **********************************************************************************************************************************
 DATASETS  * FILE   NREC   LENGTH (MB)   RECORD NAMES
              1      18       19.09       500      610      700      900      950      970     1000      129      960     1100   
                                          VAR    BASINP    GEOM    SYMINP    ZMAT    AOBASIS   BASIS     P2S    ABASIS      S 
                                         1400     1410     1200     1210     1080     1600     1650     1700   
                                           T        V       H0       H01     AOSYM     SMH    MOLCAS    OPER   

 PROGRAMS   *        TOTAL       INT
 CPU TIMES  *         0.61      0.40
 REAL TIME  *         0.91 SEC
 DISK USED  *        12.60 MB      
 GA USED    *         0.00 MB       (max)       0.00 MB       (current)
 **********************************************************************************************************************************

1PROGRAM * RHF-SCF (OPEN SHELL)       Authors: W. Meyer, H.-J. Werner


 NUMBER OF ELECTRONS:       5+    4-
 CONVERGENCE THRESHOLDS:    1.00E-12 (Density)    1.00E-07 (Energy)
 MAX. NUMBER OF ITERATIONS:      100
 INTERPOLATION TYPE:            DIIS
 INTERPOLATION STEPS:              2 (START)      1 (STEP)
 LEVEL SHIFTS:                 -0.60 (CLOSED) -0.30 (OPEN) 



 Orbital guess generated from atomic densities. Full valence occupancy:    4   1   2   0

 Molecular orbital dump at record        2100.2

 Initial alpha occupancy:   3   1   1
 Initial beta  occupancy:   3   0   1
 Wave function symmetry:    2

 ITERATION    DDIFF          GRAD             ENERGY        2-EL.EN.            DIPOLE MOMENTS         DIIS   ORB.
    1      0.000D+00      0.000D+00       -75.20760414     64.182430    0.00000    0.00000    3.61383    0    start
    2      0.000D+00      0.268D-01       -75.23049685     62.335859    0.00000    0.00000    3.23225    1    diag,B
    3      0.245D-01      0.133D-01       -75.23670493     62.269684    0.00000    0.00000    3.08124    2    diag,B
    4      0.108D-01      0.817D-02       -75.24152312     61.714367    0.00000    0.00000    2.75043    3    diag,B
    5      0.188D-01      0.166D-02       -75.24157634     61.761024    0.00000    0.00000    2.74896    4    diag,B
    6      0.174D-02      0.547D-03       -75.24159722     61.715920    0.00000    0.00000    2.72911    5    diag,B
    7      0.134D-02      0.341D-03       -75.24160501     61.728571    0.00000    0.00000    2.73437    6    fixocc
    8      0.433D-03      0.292D-03       -75.24164144     61.725621    0.00000    0.00000    2.73423    7    diag,B
    9      0.284D-02      0.138D-03       -75.24164903     61.725052    0.00000    0.00000    2.73454    8    diag,B
   10      0.192D-02      0.113D-04       -75.24164903     61.724471    0.00000    0.00000    2.73449    9    orth
   11      0.430D-04      0.524D-05       -75.24164903     61.724855    0.00000    0.00000    2.73461    9    diag,B
   12      0.642D-05      0.831D-06       -75.24164903     61.724937    0.00000    0.00000    2.73464    9    diag,B
   13      0.177D-05      0.109D-06       -75.24164903     61.724932    0.00000    0.00000    2.73464    9    diag,B
   14      0.320D-06      0.139D-07       -75.24164903     61.724931    0.00000    0.00000    2.73464    9    diag,B
   15      0.292D-07      0.249D-08       -75.24164903     61.724931    0.00000    0.00000    2.73464    9    diag,B
   16      0.476D-08      0.474D-09       -75.24164903     61.724931    0.00000    0.00000    2.73464    9    diag,B
   17      0.820D-09      0.495D-10       -75.24164903     61.724931    0.00000    0.00000    2.73464    9    diag,B
   18      0.610D-10      0.194D-10       -75.24164903     61.724931    0.00000    0.00000    2.73464    9    diag,B
   19      0.263D-10      0.741D-11       -75.24164903     61.724931    0.00000    0.00000    2.73464    9    diag,B
   20      0.182D-10      0.604D-11       -75.24164903     61.724931    0.00000    0.00000    2.73464    9    orth
   21      0.882D-10      0.794D-12       -75.24164903     61.724931    0.00000    0.00000    2.73464    9    diag,B
   22      0.651D-11      0.249D-12       -75.24164903     61.724931    0.00000    0.00000    2.73464    9    diag,B
   23      0.719D-12      0.458D-13       -75.24164903     61.724931    0.00000    0.00000    2.73464    0    orth

 Final alpha occupancy:   3   1   1
 Final beta  occupancy:   3   0   1

 !RHF STATE 1.2 Energy                -75.241649031422
 Nuclear energy                         4.23467028
 One-electron energy                 -110.33878495
 Two-electron energy                   30.86246564
 Virial quotient                       -1.00884766
 !RHF STATE 1.2 Dipole moment           0.00000000     0.00000000     2.73464089
 Dipole moment /Debye                   0.00000000     0.00000000     6.95030858

 Orbital energies:

         1.1          2.1          3.1          4.1          5.1
    -20.931420    -1.464639    -0.740220    -0.350800     0.624228

         1.2          2.2
     -0.889784     0.834430

         1.3          2.3          3.3
     -0.725756    -0.321614     0.689908

 HOMO      1.3    -0.725756 =     -19.7488eV
 LUMO      4.1    -0.350800 =      -9.5457eV
 LUMO-HOMO         0.374956 =      10.2031eV


 **********************************************************************************************************************************
 DATASETS  * FILE   NREC   LENGTH (MB)   RECORD NAMES
              1      18       19.09       500      610      700      900      950      970     1000      129      960     1100   
                                          VAR    BASINP    GEOM    SYMINP    ZMAT    AOBASIS   BASIS     P2S    ABASIS      S 
                                         1400     1410     1200     1210     1080     1600     1650     1700   
                                           T        V       H0       H01     AOSYM     SMH    MOLCAS    OPER   

              2       4        0.40       700     1000      520     2100   
                                         GEOM     BASIS   MCVARS     RHF  

 PROGRAMS   *        TOTAL       RHF       INT
 CPU TIMES  *         0.93      0.32      0.40
 REAL TIME  *         1.33 SEC
 DISK USED  *        71.23 MB      
 SF USED    *         0.00 MB      
 GA USED    *         0.00 MB       (max)       0.00 MB       (current)
 **********************************************************************************************************************************


1PROGRAM * CCSD (Unrestricted open-shell coupled cluster)     Authors: C. Hampel, H.-J. Werner, 1991, M. Deegan, P.J. Knowles, 1992


 Convergence thresholds:  THRVAR = 1.00D-08  THRDEN = 1.00D-06

 Number of core orbitals:           1 (   1   0   0 )
 Number of closed-shell orbitals:   3 (   2   0   1 )
 Number of active  orbitals:        1 (   0   1   0 )
 Number of external orbitals:       8 (   4   1   3 )

 Number of N-1 electron functions:               7
 Number of N-2 electron functions:              21
 Number of singly external CSFs:                24
 Number of doubly external CSFs:               455
 Total number of CSFs:                         479

 Molecular orbitals read from record     2100.2  Type=RHF/CANONICAL (state 1.2)

 Integral transformation finished. Total CPU:   0.12 sec, npass=  1  Memory used:   0.07 MW

 Starting RMP2 calculation

 ITER.      SQ.NORM     CORR.ENERGY   TOTAL ENERGY   ENERGY CHANGE        DEN1      VAR(S)    VAR(P)  DIIS     TIME
   1      1.11069452    -0.16366761   -75.40531664    -0.16366761    -0.00244269  0.60D-04  0.21D-02  1  1     0.27
   2      1.11697492    -0.16651471   -75.40816374    -0.00284710    -0.00001262  0.13D-05  0.98D-05  2  2     0.27
   3      1.11739407    -0.16665170   -75.40830073    -0.00013700    -0.00000002  0.24D-07  0.29D-08  3  3     0.27
   4      1.11739781    -0.16665217   -75.40830120    -0.00000046    -0.00000000  0.58D-09  0.23D-10  4  4     0.28

 Norm of t1 vector:      0.04186453      S-energy:    -0.00102422      T1 diagnostic:  0.00028806
 Norm of t2 vector:      0.34006642      P-energy:    -0.16562794
                                         Alpha-Beta:  -0.12988281
                                         Alpha-Alpha: -0.02274567
                                         Beta-Beta:   -0.01299947

 Spin contamination <S**2-Sz**2-Sz>     0.01222091
  Reference energy                    -75.241649031422
  RHF-RMP2 correlation energy          -0.166652165524
 !RHF-RMP2 energy                     -75.408301196946

 Starting UCCSD calculation

 ITER.      SQ.NORM     CORR.ENERGY   TOTAL ENERGY   ENERGY CHANGE        DEN1      VAR(S)    VAR(P)  DIIS     TIME
   1      1.11493847    -0.14877068   -75.39041971    -0.14877068    -0.02008070  0.24D-01  0.32D-02  1  1     0.56
   2      1.16096427    -0.16317194   -75.40482097    -0.01440126    -0.00817181  0.45D-02  0.45D-02  2  2     0.58
   3      1.28989877    -0.17739561   -75.41904464    -0.01422366    -0.00280632  0.22D-02  0.11D-02  3  3     0.58
   4      1.39124951    -0.18801026   -75.42965929    -0.01061465    -0.00148240  0.10D-02  0.72D-03  4  4     0.64
   5      1.50510277    -0.19481652   -75.43646555    -0.00680627    -0.00066865  0.60D-03  0.24D-03  5  5     0.66
   6      1.58329036    -0.19835785   -75.44000688    -0.00354132    -0.00036384  0.30D-03  0.15D-03  6  6     0.76
   7      1.64224552    -0.20036233   -75.44201137    -0.00200449    -0.00018449  0.14D-03  0.84D-04  6  4     0.83
   8      1.69216742    -0.20180177   -75.44345081    -0.00143944    -0.00007064  0.34D-04  0.42D-04  6  1     0.99
   9      1.69932173    -0.20200310   -75.44365213    -0.00020132    -0.00003551  0.79D-05  0.27D-04  6  2     1.00
  10      1.71613169    -0.20236075   -75.44400978    -0.00035765    -0.00001270  0.26D-05  0.92D-05  6  3     1.01
  11      1.71441745    -0.20247791   -75.44412694    -0.00011716    -0.00000460  0.13D-05  0.29D-05  6  5     1.09
  12      1.71381092    -0.20247964   -75.44412867    -0.00000173    -0.00000210  0.18D-05  0.77D-06  6  1     1.10
  13      1.71224476    -0.20247643   -75.44412546     0.00000321    -0.00000153  0.15D-05  0.51D-06  6  6     1.13
  14      1.71015619    -0.20243034   -75.44407937     0.00004609    -0.00000121  0.12D-05  0.39D-06  6  4     1.14
  15      1.70722128    -0.20239200   -75.44404103     0.00003834    -0.00000090  0.71D-06  0.36D-06  6  5     1.14
  16      1.70462903    -0.20235261   -75.44400164     0.00003939    -0.00000058  0.27D-06  0.30D-06  6  2     1.15
  17      1.70227986    -0.20236494   -75.44401397    -0.00001233    -0.00000038  0.48D-07  0.25D-06  6  3     1.15
  18      1.70082105    -0.20237603   -75.44402506    -0.00001109    -0.00000020  0.98D-08  0.13D-06  6  1     1.24
  19      1.70002677    -0.20241766   -75.44406669    -0.00004163    -0.00000011  0.39D-07  0.63D-07  6  6     1.28
  20      1.70055028    -0.20243121   -75.44408025    -0.00001356    -0.00000006  0.24D-07  0.32D-07  6  2     1.35
  21      1.70068767    -0.20245545   -75.44410448    -0.00002424    -0.00000002  0.13D-07  0.77D-08  6  4     1.35
  22      1.70113945    -0.20246082   -75.44410985    -0.00000536    -0.00000001  0.46D-08  0.51D-08  6  2     1.36
  23      1.70122862    -0.20247159   -75.44412062    -0.00001077    -0.00000000  0.17D-08  0.20D-08  6  3     1.43
  24      1.70137446    -0.20247690   -75.44412593    -0.00000531    -0.00000000  0.68D-09  0.66D-09  6  5     1.54
  25      1.70135946    -0.20248132   -75.44413035    -0.00000442    -0.00000000  0.29D-09  0.28D-09  6  1     1.61
  26      1.70142488    -0.20248216   -75.44413119    -0.00000084    -0.00000000  0.41D-10  0.10D-09  6  2     1.69

 Norm of t1 vector:      0.59637913      S-energy:    -0.00766857      T1 diagnostic:  0.11218692
                                                                       D1 diagnostic:  0.26530907
 Norm of t2 vector:      0.58801090      P-energy:    -0.19481359
                                         Alpha-Beta:  -0.18317077
                                         Alpha-Alpha: -0.01190387
                                         Beta-Beta:    0.00026105

 Singles amplitudes (print threshold =  0.500E-01):

         I         SYM. A    A   T(IA) [Alpha-Alpha]

         4         3         1     -0.06472709
         4         3         3     -0.05901414
 
         I         SYM. A    A   T(IA) [Beta-Beta]

         2         1         1      0.49199691
         4         3         1      0.31301336

 Doubles amplitudes (print threshold =  0.500E-01):

         I         J         SYM. A    SYM. B    A         B      T(IJ, AB) [Alpha-Beta]

         2         2         1         1         1         1     -0.23061422
         2         2         1         1         3         1     -0.06074062
         2         2         3         3         1         1     -0.07689426
         4         4         1         1         1         1     -0.07802086
         4         4         3         3         1         1     -0.22179095
         4         4         3         3         3         1     -0.05723704
         3         2         1         2         1         1      0.18596485
         4         2         1         3         1         1     -0.16887907
         4         2         3         1         1         1     -0.14144420
         2         4         1         3         1         1     -0.11931035
         2         4         3         1         1         1     -0.15814094
         3         4         3         2         1         1      0.17520007

 Spin contamination <S**2-Sz**2-Sz>     0.20057309
 

 RESULTS
 =======

  Reference energy                    -75.241649031422
  UCCSD singles energy                 -0.007668572964
  UCCSD pair energy                    -0.194813588416
  UCCSD correlation energy             -0.202482161380
 
 !RHF-UCCSD energy                    -75.444131192802

 Program statistics:

 Available memory in ccsd:               499999732
 Min. memory needed in ccsd:                  3224
 Max. memory used in ccsd:                    3695
 Max. memory used in cckext:                 37307 (26 integral passes)
 Max. memory used in cckint:                 67493 ( 1 integral passes)



 **********************************************************************************************************************************
 DATASETS  * FILE   NREC   LENGTH (MB)   RECORD NAMES
              1      18       19.09       500      610      700      900      950      970     1000      129      960     1100   
                                          VAR    BASINP    GEOM    SYMINP    ZMAT    AOBASIS   BASIS     P2S    ABASIS      S 
                                         1400     1410     1200     1210     1080     1600     1650     1700   
                                           T        V       H0       H01     AOSYM     SMH    MOLCAS    OPER   

              2       4        0.40       700     1000      520     2100   
                                         GEOM     BASIS   MCVARS     RHF  

 PROGRAMS   *        TOTAL     UCCSD       RHF       INT
 CPU TIMES  *         2.64      1.71      0.32      0.40
 REAL TIME  *         3.61 SEC
 DISK USED  *        71.36 MB      
 SF USED    *         0.09 MB      
 GA USED    *         0.00 MB       (max)       0.00 MB       (current)
 **********************************************************************************************************************************

 UCCSD/6-31G energy=    -75.444131192802

        UCCSD           RHF-SCF 
    -75.44413119    -75.24164903
 **********************************************************************************************************************************
 Variable memory released
