[Molden Format]                                                                 
[ATOMS] AU                                                                      
C        1    6        0.0000000000        0.0000000000        0.0000000000     
[Molden Format]                                                                 
[GTO]                                                                           
  1 0
s   9 1.00
   6665.00000000000       6.920000000000000E-004                                
   1000.00000000000       5.329000000000000E-003                                
   228.000000000000       2.707700000000000E-002                                
   64.7100000000000       0.101718000000000                                     
   21.0600000000000       0.274740000000000                                     
   7.49500000000000       0.448564000000000                                     
   2.79700000000000       0.285074000000000                                     
  0.521500000000000       1.520400000000000E-002                                
  0.159600000000000      -3.191000000000000E-003                                
s   9 1.00
   6665.00000000000      -1.460000000000000E-004                                
   1000.00000000000      -1.154000000000000E-003                                
   228.000000000000      -5.725000000000000E-003                                
   64.7100000000000      -2.331200000000000E-002                                
   21.0600000000000      -6.395500000000000E-002                                
   7.49500000000000      -0.149981000000000                                     
   2.79700000000000      -0.127262000000000                                     
  0.521500000000000       0.544529000000000                                     
  0.159600000000000       0.580496000000000                                     
s   9 1.00
   6665.00000000000       0.000000000000000E+000                                
   1000.00000000000       0.000000000000000E+000                                
   228.000000000000       0.000000000000000E+000                                
   64.7100000000000       0.000000000000000E+000                                
   21.0600000000000       0.000000000000000E+000                                
   7.49500000000000       0.000000000000000E+000                                
   2.79700000000000       0.000000000000000E+000                                
  0.521500000000000       0.000000000000000E+000                                
  0.159600000000000        1.00000000000000                                     
p   4 1.00
   9.43900000000000       3.810900000000000E-002                                
   2.00200000000000       0.209480000000000                                     
  0.545600000000000       0.508557000000000                                     
  0.151700000000000       0.468842000000000                                     
p   4 1.00
   9.43900000000000       0.000000000000000E+000                                
   2.00200000000000       0.000000000000000E+000                                
  0.545600000000000       0.000000000000000E+000                                
  0.151700000000000        1.00000000000000                                     
d   1 1.00
  0.550000000000000        1.00000000000000                                     
 
                                                                                
[MO]
 Sym= A
 Ene=  -11.3445564498582     
 Spin= Alpha
 Occup= 1.0
  1        1.0007262183
  2        0.0060005243
  3       -0.0039041623
  4        0.0000000000
  5        0.0000000000
  6        0.0000000000
  7        0.0000000000
  8        0.0000000000
  9        0.0000000000
 10        0.0003467430
 11        0.0003467430
 12       -0.0006934860
 13        0.0000000000
 14        0.0000000000
 15        0.0000000000
 Sym= A
 Ene= -0.825692018251590     
 Spin= Alpha
 Occup= 1.0
  1        0.0112791043
  2        1.0678302166
  3       -0.0731326366
  4        0.0000000000
  5        0.0000000000
  6        0.0000000000
  7        0.0000000000
  8        0.0000000000
  9        0.0000000000
 10        0.0095363155
 11        0.0095363155
 12       -0.0190726309
 13        0.0000000000
 14        0.0000000000
 15        0.0000000000
 Sym= A
 Ene= -0.434264002681560     
 Spin= Alpha
 Occup= 1.0
  1        0.0000000000
  2        0.0000000000
  3        0.0000000000
  4        0.0000000000
  5        1.0068102989
  6        0.0000000000
  7        0.0000000000
  8       -0.0082800384
  9        0.0000000000
 10        0.0000000000
 11        0.0000000000
 12        0.0000000000
 13        0.0000000000
 14        0.0000000000
 15        0.0000000000
 Sym= A
 Ene= -0.434264002681560     
 Spin= Alpha
 Occup= 1.0
  1        0.0000000000
  2        0.0000000000
  3        0.0000000000
  4        1.0068102989
  5        0.0000000000
  6        0.0000000000
  7       -0.0082800384
  8        0.0000000000
  9        0.0000000000
 10        0.0000000000
 11        0.0000000000
 12        0.0000000000
 13        0.0000000000
 14        0.0000000000
 15        0.0000000000
 Sym= A
 Ene=  4.367914113973276E-002
 Spin= Alpha
 Occup= 0.0
  1        0.0000000000
  2        0.0000000000
  3        0.0000000000
  4        0.0000000000
  5        0.0000000000
  6        0.7099564447
  7        0.0000000000
  8        0.0000000000
  9        0.3305684934
 10        0.0000000000
 11        0.0000000000
 12        0.0000000000
 13        0.0000000000
 14        0.0000000000
 15        0.0000000000
 Sym= A
 Ene=  0.633873543317458     
 Spin= Alpha
 Occup= 0.0
  1        0.0000000000
  2        0.0000000000
  3        0.0000000000
  4        0.0000000000
  5        1.4486510294
  6        0.0000000000
  7        0.0000000000
  8       -1.7641395137
  9        0.0000000000
 10        0.0000000000
 11        0.0000000000
 12        0.0000000000
 13        0.0000000000
 14        0.0000000000
 15        0.0000000000
 Sym= A
 Ene=  0.633873543317459     
 Spin= Alpha
 Occup= 0.0
  1        0.0000000000
  2        0.0000000000
  3        0.0000000000
  4        1.4486510294
  5        0.0000000000
  6        0.0000000000
  7       -1.7641395137
  8        0.0000000000
  9        0.0000000000
 10        0.0000000000
 11        0.0000000000
 12        0.0000000000
 13        0.0000000000
 14        0.0000000000
 15        0.0000000000
 Sym= A
 Ene=  0.716980084893993     
 Spin= Alpha
 Occup= 0.0
  1        0.0000000000
  2        0.0000000000
  3        0.0000000000
  4        0.0000000000
  5        0.0000000000
  6        1.6149980278
  7        0.0000000000
  8        0.0000000000
  9       -1.7329112078
 10        0.0000000000
 11        0.0000000000
 12        0.0000000000
 13        0.0000000000
 14        0.0000000000
 15        0.0000000000
 Sym= A
 Ene=  0.719125903093072     
 Spin= Alpha
 Occup= 0.0
  1        0.6404375043
  2        3.1954792771
  3       -3.4295544696
  4        0.0000000000
  5        0.0000000000
  6        0.0000000000
  7        0.0000000000
  8        0.0000000000
  9        0.0000000000
 10        0.0042053888
 11        0.0042053888
 12       -0.0084107776
 13        0.0000000000
 14        0.0000000000
 15        0.0000000000
 Sym= A
 Ene=   1.33373324014258     
 Spin= Alpha
 Occup= 0.0
  1        0.0000000000
  2        0.0000000000
  3       -0.0000000000
  4        0.0000000000
  5        0.0000000000
  6        0.0000000000
  7        0.0000000000
  8        0.0000000000
  9        0.0000000000
 10        0.5000000000
 11       -0.5000000000
 12       -0.0000000000
 13        0.0000000000
 14        0.0000000000
 15        0.0000000000
 Sym= A
 Ene=   1.33373324014258     
 Spin= Alpha
 Occup= 0.0
  1        0.0000000000
  2        0.0000000000
  3        0.0000000000
  4        0.0000000000
  5        0.0000000000
  6        0.0000000000
  7        0.0000000000
  8        0.0000000000
  9        0.0000000000
 10        0.0000000000
 11        0.0000000000
 12        0.0000000000
 13        1.0000000000
 14        0.0000000000
 15        0.0000000000
 Sym= A
 Ene=   1.36303334431399     
 Spin= Alpha
 Occup= 0.0
  1        0.0000000000
  2        0.0000000000
  3        0.0000000000
  4        0.0000000000
  5        0.0000000000
  6        0.0000000000
  7        0.0000000000
  8        0.0000000000
  9        0.0000000000
 10        0.0000000000
 11        0.0000000000
 12        0.0000000000
 13        0.0000000000
 14        0.0000000000
 15        1.0000000000
 Sym= A
 Ene=   1.36303334431399     
 Spin= Alpha
 Occup= 0.0
  1        0.0000000000
  2        0.0000000000
  3        0.0000000000
  4        0.0000000000
  5        0.0000000000
  6        0.0000000000
  7        0.0000000000
  8        0.0000000000
  9        0.0000000000
 10        0.0000000000
 11        0.0000000000
 12        0.0000000000
 13        0.0000000000
 14        1.0000000000
 15        0.0000000000
 Sym= A
 Ene=   1.37482623104320     
 Spin= Alpha
 Occup= 0.0
  1        0.0109115755
  2        0.0818875798
  3       -0.0524162070
  4        0.0000000000
  5        0.0000000000
  6        0.0000000000
  7        0.0000000000
  8        0.0000000000
  9        0.0000000000
 10       -0.2884867181
 11       -0.2884867181
 12        0.5769734361
 13        0.0000000000
 14        0.0000000000
 15        0.0000000000
 Sym= A
 Ene=  -11.2985220554199     
 Spin= Beta
 Occup= 1.0
  1        0.9993020680
  2       -0.0057128135
  3        0.0037143860
  4        0.0000000000
  5        0.0000000000
  6        0.0000000000
  7        0.0000000000
  8        0.0000000000
  9        0.0000000000
 10       -0.0000844501
 11       -0.0000844501
 12        0.0001689001
 13        0.0000000000
 14        0.0000000000
 15        0.0000000000
 Sym= A
 Ene= -0.583069811525449     
 Spin= Beta
 Occup= 1.0
  1        0.0144149229
  2       -0.9159204040
  3       -0.0887575934
  4        0.0000000000
  5        0.0000000000
  6        0.0000000000
  7        0.0000000000
  8        0.0000000000
  9        0.0000000000
 10        0.0089262715
 11        0.0089262715
 12       -0.0178525430
 13        0.0000000000
 14        0.0000000000
 15        0.0000000000
 Sym= A
 Ene=  8.317812953639669E-002
 Spin= Beta
 Occup= 0.0
  1        0.0000000000
  2        0.0000000000
  3        0.0000000000
  4        0.0000000000
  5        0.0000000000
  6        0.6538412400
  7        0.0000000000
  8        0.0000000000
  9        0.3901310323
 10        0.0000000000
 11        0.0000000000
 12        0.0000000000
 13        0.0000000000
 14        0.0000000000
 15        0.0000000000
 Sym= A
 Ene=  0.140994258790184     
 Spin= Beta
 Occup= 0.0
  1        0.0000000000
  2        0.0000000000
  3        0.0000000000
  4        0.0000000000
  5        0.5966078957
  6        0.0000000000
  7        0.0000000000
  8        0.4495792363
  9        0.0000000000
 10        0.0000000000
 11        0.0000000000
 12        0.0000000000
 13        0.0000000000
 14        0.0000000000
 15        0.0000000000
 Sym= A
 Ene=  0.140994258790184     
 Spin= Beta
 Occup= 0.0
  1        0.0000000000
  2        0.0000000000
  3        0.0000000000
  4        0.5966078957
  5        0.0000000000
  6        0.0000000000
  7        0.4495792363
  8        0.0000000000
  9        0.0000000000
 10        0.0000000000
 11        0.0000000000
 12        0.0000000000
 13        0.0000000000
 14        0.0000000000
 15        0.0000000000
 Sym= A
 Ene=  0.749044627068896     
 Spin= Beta
 Occup= 0.0
  1        0.0000000000
  2        0.0000000000
  3        0.0000000000
  4        0.0000000000
  5        0.0000000000
  6        1.6385201909
  7        0.0000000000
  8        0.0000000000
  9       -1.7204809097
 10        0.0000000000
 11        0.0000000000
 12        0.0000000000
 13        0.0000000000
 14        0.0000000000
 15        0.0000000000
 Sym= A
 Ene=  0.793294043731761     
 Spin= Beta
 Occup= 0.0
  1        0.6426229649
  2        3.2424560667
  3       -3.4292696270
  4        0.0000000000
  5        0.0000000000
  6        0.0000000000
  7        0.0000000000
  8        0.0000000000
  9        0.0000000000
 10       -0.0041529749
 11       -0.0041529749
 12        0.0083059498
 13        0.0000000000
 14        0.0000000000
 15        0.0000000000
 Sym= A
 Ene=  0.800983267977382     
 Spin= Beta
 Occup= 0.0
  1        0.0000000000
  2        0.0000000000
  3        0.0000000000
  4        1.6602155889
  5        0.0000000000
  6        0.0000000000
  7       -1.7059118656
  8        0.0000000000
  9        0.0000000000
 10        0.0000000000
 11        0.0000000000
 12        0.0000000000
 13        0.0000000000
 14        0.0000000000
 15        0.0000000000
 Sym= A
 Ene=  0.800983267977385     
 Spin= Beta
 Occup= 0.0
  1        0.0000000000
  2        0.0000000000
  3        0.0000000000
  4        0.0000000000
  5        1.6602155889
  6        0.0000000000
  7        0.0000000000
  8       -1.7059118656
  9        0.0000000000
 10        0.0000000000
 11        0.0000000000
 12        0.0000000000
 13        0.0000000000
 14        0.0000000000
 15        0.0000000000
 Sym= A
 Ene=   1.44054697335172     
 Spin= Beta
 Occup= 0.0
  1        0.0090968847
  2        0.0750106444
  3       -0.0466161088
  4        0.0000000000
  5        0.0000000000
  6        0.0000000000
  7        0.0000000000
  8        0.0000000000
  9        0.0000000000
 10        0.2885071935
 11        0.2885071935
 12       -0.5770143869
 13        0.0000000000
 14        0.0000000000
 15        0.0000000000
 Sym= A
 Ene=   1.45497356271289     
 Spin= Beta
 Occup= 0.0
  1        0.0000000000
  2        0.0000000000
  3        0.0000000000
  4        0.0000000000
  5        0.0000000000
  6        0.0000000000
  7        0.0000000000
  8        0.0000000000
  9        0.0000000000
 10        0.0000000000
 11        0.0000000000
 12        0.0000000000
 13        0.0000000000
 14        0.0000000000
 15        1.0000000000
 Sym= A
 Ene=   1.45497356271289     
 Spin= Beta
 Occup= 0.0
  1        0.0000000000
  2        0.0000000000
  3        0.0000000000
  4        0.0000000000
  5        0.0000000000
  6        0.0000000000
  7        0.0000000000
  8        0.0000000000
  9        0.0000000000
 10        0.0000000000
 11        0.0000000000
 12        0.0000000000
 13        0.0000000000
 14        1.0000000000
 15        0.0000000000
 Sym= A
 Ene=   1.50309128735571     
 Spin= Beta
 Occup= 0.0
  1        0.0000000000
  2        0.0000000000
  3       -0.0000000000
  4        0.0000000000
  5        0.0000000000
  6        0.0000000000
  7        0.0000000000
  8        0.0000000000
  9        0.0000000000
 10        0.5000000000
 11       -0.5000000000
 12        0.0000000000
 13        0.0000000000
 14        0.0000000000
 15        0.0000000000
 Sym= A
 Ene=   1.50309128735571     
 Spin= Beta
 Occup= 0.0
  1        0.0000000000
  2        0.0000000000
  3        0.0000000000
  4        0.0000000000
  5        0.0000000000
  6        0.0000000000
  7        0.0000000000
  8        0.0000000000
  9        0.0000000000
 10        0.0000000000
 11        0.0000000000
 12        0.0000000000
 13        1.0000000000
 14        0.0000000000
 15        0.0000000000
