[Molden Format]                                                                 
[ATOMS] AU                                                                      
O        1    8        0.0000000000       -0.0000000000        0.1286197705     
H        2    1        0.0000000000       -1.4176813528       -1.0206445452     
H        3    1        0.0000000000        1.4176813528       -1.0206445452     
[Molden Format]                                                                 
[GTO]                                                                           
  1 0
s   9 1.00
   11720.0000000000       7.100000000000000E-004                                
   1759.00000000000       5.470000000000000E-003                                
   400.800000000000       2.783700000000000E-002                                
   113.700000000000       0.104800000000000                                     
   37.0300000000000       0.283062000000000                                     
   13.2700000000000       0.448719000000000                                     
   5.02500000000000       0.270952000000000                                     
   1.01300000000000       1.545800000000000E-002                                
  0.302300000000000      -2.585000000000000E-003                                
s   9 1.00
   11720.0000000000      -1.600000000000000E-004                                
   1759.00000000000      -1.263000000000000E-003                                
   400.800000000000      -6.267000000000000E-003                                
   113.700000000000      -2.571600000000000E-002                                
   37.0300000000000      -7.092400000000000E-002                                
   13.2700000000000      -0.165411000000000                                     
   5.02500000000000      -0.116955000000000                                     
   1.01300000000000       0.557368000000000                                     
  0.302300000000000       0.572759000000000                                     
s   9 1.00
   11720.0000000000       0.000000000000000E+000                                
   1759.00000000000       0.000000000000000E+000                                
   400.800000000000       0.000000000000000E+000                                
   113.700000000000       0.000000000000000E+000                                
   37.0300000000000       0.000000000000000E+000                                
   13.2700000000000       0.000000000000000E+000                                
   5.02500000000000       0.000000000000000E+000                                
   1.01300000000000       0.000000000000000E+000                                
  0.302300000000000        1.00000000000000                                     
p   4 1.00
   17.7000000000000       4.301800000000000E-002                                
   3.85400000000000       0.228913000000000                                     
   1.04600000000000       0.508728000000000                                     
  0.275300000000000       0.460531000000000                                     
p   4 1.00
   17.7000000000000       0.000000000000000E+000                                
   3.85400000000000       0.000000000000000E+000                                
   1.04600000000000       0.000000000000000E+000                                
  0.275300000000000        1.00000000000000                                     
d   1 1.00
   1.18500000000000        1.00000000000000                                     
 
  2 0
s   4 1.00
   13.0100000000000       1.968500000000000E-002                                
   1.96200000000000       0.137977000000000                                     
  0.444600000000000       0.478148000000000                                     
  0.122000000000000       0.501240000000000                                     
s   4 1.00
   13.0100000000000       0.000000000000000E+000                                
   1.96200000000000       0.000000000000000E+000                                
  0.444600000000000       0.000000000000000E+000                                
  0.122000000000000        1.00000000000000                                     
p   1 1.00
  0.727000000000000        1.00000000000000                                     
 
  3 0
s   4 1.00
   13.0100000000000       1.968500000000000E-002                                
   1.96200000000000       0.137977000000000                                     
  0.444600000000000       0.478148000000000                                     
  0.122000000000000       0.501240000000000                                     
s   4 1.00
   13.0100000000000       0.000000000000000E+000                                
   1.96200000000000       0.000000000000000E+000                                
  0.444600000000000       0.000000000000000E+000                                
  0.122000000000000        1.00000000000000                                     
p   1 1.00
  0.727000000000000        1.00000000000000                                     
 
                                                                                
[MO]
 Sym= A
 Ene=  -20.5533300841893     
 Spin= Alpha
 Occup= 1.0
  1        1.0003797058
  2        0.0021891424
  3       -0.0013812441
  4        0.0000000000
  5        0.0000000000
  6       -0.0025672553
  7        0.0000000000
  8        0.0000000000
  9        0.0016974505
 10       -0.0000605257
 11        0.0000486157
 12        0.0000119100
 13        0.0000000000
 14        0.0000000000
 15        0.0000000000
 16       -0.0003196273
 17        0.0005778595
 18        0.0000000000
 19       -0.0005370818
 20       -0.0004757614
 21       -0.0003196273
 22        0.0005778595
 23        0.0000000000
 24        0.0005370818
 25       -0.0004757614
 Sym= A
 Ene=  -1.33446238494645     
 Spin= Alpha
 Occup= 1.0
  1        0.0076613945
  2       -0.8719477987
  3        0.1196316854
  4        0.0000000000
  5        0.0000000000
  6        0.1155554861
  7        0.0000000000
  8        0.0000000000
  9       -0.0657444476
 10        0.0018268080
 11       -0.0009261975
 12       -0.0009006105
 13        0.0000000000
 14        0.0000000000
 15        0.0000000000
 16       -0.3255915549
 17        0.1530828218
 18        0.0000000000
 19       -0.0361434622
 20       -0.0212796448
 21       -0.3255915549
 22        0.1530828218
 23        0.0000000000
 24        0.0361434622
 25       -0.0212796448
 Sym= A
 Ene= -0.689867382106245     
 Spin= Alpha
 Occup= 1.0
  1        0.0000000000
  2        0.0000000000
  3        0.0000000000
  4        0.0000000000
  5        0.7144980520
  6        0.0000000000
  7        0.0000000000
  8       -0.1001599977
  9        0.0000000000
 10        0.0000000000
 11        0.0000000000
 12        0.0000000000
 13        0.0000000000
 14        0.0000000000
 15       -0.0268510623
 16       -0.5524816515
 17        0.1833091819
 18        0.0000000000
 19       -0.0223118161
 20       -0.0330409358
 21        0.5524816515
 22       -0.1833091819
 23        0.0000000000
 24       -0.0223118161
 25        0.0330409358
 Sym= A
 Ene= -0.570278240413578     
 Spin= Alpha
 Occup= 1.0
  1        0.0023633331
  2       -0.3003131710
  3       -0.1821605532
  4        0.0000000000
  5        0.0000000000
  6       -0.7887874099
  7        0.0000000000
  8        0.0000000000
  9        0.0040433261
 10       -0.0074556839
 11       -0.0029694207
 12        0.0104251046
 13        0.0000000000
 14        0.0000000000
 15        0.0000000000
 16        0.3586806360
 17       -0.1377170194
 18        0.0000000000
 19        0.0322785425
 20       -0.0063241929
 21        0.3586806360
 22       -0.1377170194
 23        0.0000000000
 24       -0.0322785425
 25       -0.0063241929
 Sym= A
 Ene= -0.493487245276971     
 Spin= Alpha
 Occup= 1.0
  1        0.0000000000
  2        0.0000000000
  3        0.0000000000
  4        0.9205693462
  5        0.0000000000
  6        0.0000000000
  7        0.0715435583
  8        0.0000000000
  9        0.0000000000
 10        0.0000000000
 11        0.0000000000
 12        0.0000000000
 13        0.0000000000
 14       -0.0183357444
 15        0.0000000000
 16        0.0000000000
 17        0.0000000000
 18        0.0309271721
 19        0.0000000000
 20        0.0000000000
 21        0.0000000000
 22        0.0000000000
 23        0.0309271721
 24        0.0000000000
 25        0.0000000000
 Sym= A
 Ene=  0.183594739565281     
 Spin= Alpha
 Occup= 0.0
  1        0.0517598732
  2       -0.1404947967
  3       -0.9079538077
  4        0.0000000000
  5        0.0000000000
  6        0.2862575996
  7        0.0000000000
  8        0.0000000000
  9        0.2145785765
 10        0.0070670430
 11       -0.0022777418
 12       -0.0047893012
 13        0.0000000000
 14        0.0000000000
 15        0.0000000000
 16        0.0984357649
 17        0.7741143581
 18        0.0000000000
 19        0.0164048973
 20        0.0161328332
 21        0.0984357649
 22        0.7741143581
 23        0.0000000000
 24       -0.0164048973
 25        0.0161328332
 Sym= A
 Ene=  0.255262529221844     
 Spin= Alpha
 Occup= 0.0
  1        0.0000000000
  2        0.0000000000
  3        0.0000000000
  4        0.0000000000
  5        0.4180699009
  6        0.0000000000
  7        0.0000000000
  8        0.4750691955
  9        0.0000000000
 10        0.0000000000
 11        0.0000000000
 12        0.0000000000
 13        0.0000000000
 14        0.0000000000
 15       -0.0203629644
 16        0.0512925952
 17        1.4153868559
 18        0.0000000000
 19        0.0198410775
 20        0.0162131836
 21       -0.0512925952
 22       -1.4153868559
 23        0.0000000000
 24        0.0198410775
 25       -0.0162131836
 Sym= A
 Ene=  0.774793542822109     
 Spin= Alpha
 Occup= 0.0
  1        0.0000000000
  2        0.0000000000
  3        0.0000000000
  4        0.0000000000
  5        0.3826055561
  6        0.0000000000
  7        0.0000000000
  8        0.2699382827
  9        0.0000000000
 10        0.0000000000
 11        0.0000000000
 12        0.0000000000
 13        0.0000000000
 14        0.0000000000
 15        0.1107518202
 16        1.6063265301
 17       -1.5158941631
 18        0.0000000000
 19       -0.0719532038
 20       -0.1440010853
 21       -1.6063265301
 22        1.5158941631
 23        0.0000000000
 24       -0.0719532038
 25        0.1440010853
 Sym= A
 Ene=  0.857735659545326     
 Spin= Alpha
 Occup= 0.0
  1        0.0719241455
  2        0.5222931641
  3       -0.6579518923
  4        0.0000000000
  5        0.0000000000
  6       -0.5115913964
  7        0.0000000000
  8        0.0000000000
  9        0.2688346603
 10        0.0541940382
 11       -0.0504253914
 12       -0.0037686468
 13        0.0000000000
 14        0.0000000000
 15        0.0000000000
 16       -1.3248917588
 17        1.2212265660
 18        0.0000000000
 19        0.2927049142
 20        0.0740600940
 21       -1.3248917588
 22        1.2212265660
 23        0.0000000000
 24       -0.2927049142
 25        0.0740600940
 Sym= A
 Ene=   1.16640813236052     
 Spin= Alpha
 Occup= 0.0
  1        0.0107537988
  2        0.2681750078
  3        0.5537701391
  4        0.0000000000
  5        0.0000000000
  6        1.0802624451
  7        0.0000000000
  8        0.0000000000
  9       -1.7738457699
 10        0.0019339184
 11       -0.0104302888
 12        0.0084963705
 13        0.0000000000
 14        0.0000000000
 15        0.0000000000
 16       -0.9530182442
 17        0.3800839516
 18        0.0000000000
 19       -0.0634249382
 20       -0.2608824361
 21       -0.9530182442
 22        0.3800839516
 23        0.0000000000
 24        0.0634249382
 25       -0.2608824361
 Sym= A
 Ene=   1.19956184974810     
 Spin= Alpha
 Occup= 0.0
  1        0.0000000000
  2        0.0000000000
  3        0.0000000000
  4        1.4098163183
  5        0.0000000000
  6        0.0000000000
  7       -1.6668192534
  8        0.0000000000
  9        0.0000000000
 10        0.0000000000
 11        0.0000000000
 12        0.0000000000
 13        0.0000000000
 14       -0.0028123965
 15        0.0000000000
 16        0.0000000000
 17        0.0000000000
 18       -0.0176905050
 19        0.0000000000
 20        0.0000000000
 21        0.0000000000
 22        0.0000000000
 23       -0.0176905050
 24        0.0000000000
 25        0.0000000000
 Sym= A
 Ene=   1.25656327227063     
 Spin= Alpha
 Occup= 0.0
  1        0.0000000000
  2        0.0000000000
  3        0.0000000000
  4        0.0000000000
  5        1.0872536276
  6        0.0000000000
  7        0.0000000000
  8       -2.2446302614
  9        0.0000000000
 10        0.0000000000
 11        0.0000000000
 12        0.0000000000
 13        0.0000000000
 14        0.0000000000
 15        0.0433939998
 16       -0.6173448071
 17       -0.5107683264
 18        0.0000000000
 19       -0.2908341637
 20       -0.1973222409
 21        0.6173448071
 22        0.5107683264
 23        0.0000000000
 24       -0.2908341637
 25        0.1973222409
 Sym= A
 Ene=   1.42173072610007     
 Spin= Alpha
 Occup= 0.0
  1        0.1762912607
  2        0.9317955754
  3       -0.8982342545
  4        0.0000000000
  5        0.0000000000
  6        0.1923798443
  7        0.0000000000
  8        0.0000000000
  9       -0.8733838613
 10        0.0295571716
 11        0.0385556667
 12       -0.0681128383
 13        0.0000000000
 14        0.0000000000
 15        0.0000000000
 16       -0.6329589546
 17        0.5044628319
 18        0.0000000000
 19       -0.3665746017
 20        0.5191370801
 21       -0.6329589546
 22        0.5044628319
 23        0.0000000000
 24        0.3665746017
 25        0.5191370801
 Sym= A
 Ene=   1.48269863761049     
 Spin= Alpha
 Occup= 0.0
  1        0.0000000000
  2        0.0000000000
  3        0.0000000000
  4        0.0000000000
  5        0.0000000000
  6        0.0000000000
  7        0.0000000000
  8        0.0000000000
  9        0.0000000000
 10        0.0000000000
 11        0.0000000000
 12        0.0000000000
 13        0.1333834155
 14        0.0000000000
 15        0.0000000000
 16        0.0000000000
 17        0.0000000000
 18       -0.6869920897
 19        0.0000000000
 20        0.0000000000
 21        0.0000000000
 22        0.0000000000
 23        0.6869920897
 24        0.0000000000
 25        0.0000000000
 Sym= A
 Ene=   1.65865014422965     
 Spin= Alpha
 Occup= 0.0
  1        0.0000000000
  2        0.0000000000
  3        0.0000000000
  4        0.0045490379
  5        0.0000000000
  6        0.0000000000
  7        0.6357340847
  8        0.0000000000
  9        0.0000000000
 10        0.0000000000
 11        0.0000000000
 12        0.0000000000
 13        0.0000000000
 14        0.1609940072
 15        0.0000000000
 16        0.0000000000
 17        0.0000000000
 18       -0.7617150699
 19        0.0000000000
 20        0.0000000000
 21        0.0000000000
 22        0.0000000000
 23       -0.7617150699
 24        0.0000000000
 25        0.0000000000
 Sym= A
 Ene=   1.86368731211721     
 Spin= Alpha
 Occup= 0.0
  1        0.7343561833
  2        3.1769997585
  3       -4.8588834650
  4        0.0000000000
  5        0.0000000000
  6        0.1475247895
  7        0.0000000000
  8        0.0000000000
  9        0.9022893387
 10       -0.0869279942
 11        0.0238541179
 12        0.0630738763
 13        0.0000000000
 14        0.0000000000
 15        0.0000000000
 16        1.4025934004
 17       -0.3161432505
 18        0.0000000000
 19        0.3533450824
 20        0.0163101070
 21        1.4025934004
 22       -0.3161432505
 23        0.0000000000
 24       -0.3533450824
 25        0.0163101070
 Sym= A
 Ene=   1.94070084995358     
 Spin= Alpha
 Occup= 0.0
  1        0.0000000000
  2        0.0000000000
  3        0.0000000000
  4        0.0000000000
  5        0.0315519044
  6        0.0000000000
  7        0.0000000000
  8        0.8364722912
  9        0.0000000000
 10        0.0000000000
 11        0.0000000000
 12        0.0000000000
 13        0.0000000000
 14        0.0000000000
 15        0.0304603143
 16        0.6121559506
 17       -0.2213298319
 18        0.0000000000
 19       -0.4678229143
 20        0.7023183295
 21       -0.6121559506
 22        0.2213298319
 23        0.0000000000
 24       -0.4678229143
 25       -0.7023183295
 Sym= A
 Ene=   2.42680169157011     
 Spin= Alpha
 Occup= 0.0
  1        0.0000000000
  2        0.0000000000
  3        0.0000000000
  4        0.0000000000
  5        1.1900121410
  6        0.0000000000
  7        0.0000000000
  8       -0.4301010321
  9        0.0000000000
 10        0.0000000000
 11        0.0000000000
 12        0.0000000000
 13        0.0000000000
 14        0.0000000000
 15        0.1316269640
 16        0.4590897686
 17        0.1025636630
 18        0.0000000000
 19        0.7328698946
 20        0.5363792918
 21       -0.4590897686
 22       -0.1025636630
 23        0.0000000000
 24        0.7328698946
 25       -0.5363792918
 Sym= A
 Ene=   2.47411111801361     
 Spin= Alpha
 Occup= 0.0
  1        0.2605770486
  2        1.3657120855
  3        0.0183781127
  4        0.0000000000
  5        0.0000000000
  6       -0.9899049903
  7        0.0000000000
  8        0.0000000000
  9        0.2782401128
 10        0.1199974490
 11       -0.0932668088
 12       -0.0267306402
 13        0.0000000000
 14        0.0000000000
 15        0.0000000000
 16       -0.7898811955
 17        0.2333098299
 18        0.0000000000
 19       -0.7218956482
 20       -0.5610239229
 21       -0.7898811955
 22        0.2333098299
 23        0.0000000000
 24        0.7218956482
 25       -0.5610239229
 Sym= A
 Ene=   3.29122300824091     
 Spin= Alpha
 Occup= 0.0
  1        0.0000000000
  2        0.0000000000
  3        0.0000000000
  4        0.0227085898
  5        0.0000000000
  6        0.0000000000
  7       -0.3203238337
  8        0.0000000000
  9        0.0000000000
 10        0.0000000000
 11        0.0000000000
 12        0.0000000000
 13        0.0000000000
 14        1.0433307775
 15        0.0000000000
 16        0.0000000000
 17        0.0000000000
 18        0.3972651362
 19        0.0000000000
 20        0.0000000000
 21        0.0000000000
 22        0.0000000000
 23        0.3972651362
 24        0.0000000000
 25        0.0000000000
 Sym= A
 Ene=   3.32092190883455     
 Spin= Alpha
 Occup= 0.0
  1        0.0000000000
  2        0.0000000000
  3        0.0000000000
  4        0.0000000000
  5        0.0000000000
  6        0.0000000000
  7        0.0000000000
  8        0.0000000000
  9        0.0000000000
 10        0.0000000000
 11        0.0000000000
 12        0.0000000000
 13        1.0606080485
 14        0.0000000000
 15        0.0000000000
 16        0.0000000000
 17        0.0000000000
 18        0.3631459297
 19        0.0000000000
 20        0.0000000000
 21        0.0000000000
 22        0.0000000000
 23       -0.3631459297
 24        0.0000000000
 25        0.0000000000
 Sym= A
 Ene=   3.50732298587055     
 Spin= Alpha
 Occup= 0.0
  1        0.0754320983
  2        0.2851582259
  3       -0.5568814713
  4        0.0000000000
  5        0.0000000000
  6       -0.0245678061
  7        0.0000000000
  8        0.0000000000
  9        0.4782889767
 10        0.1641821367
 11        0.4501194225
 12       -0.6143015592
 13        0.0000000000
 14        0.0000000000
 15        0.0000000000
 16        0.3786225888
 17       -0.1697429027
 18        0.0000000000
 19        0.3065229592
 20       -0.3347467709
 21        0.3786225888
 22       -0.1697429027
 23        0.0000000000
 24       -0.3065229592
 25       -0.3347467709
 Sym= A
 Ene=   3.83931632417759     
 Spin= Alpha
 Occup= 0.0
  1        0.1668128526
  2        0.4422235026
  3       -2.5330356354
  4        0.0000000000
  5        0.0000000000
  6        0.5743716398
  7        0.0000000000
  8        0.0000000000
  9        0.7165802992
 10        0.6376866751
 11       -0.4868544010
 12       -0.1508322741
 13        0.0000000000
 14        0.0000000000
 15        0.0000000000
 16        2.0988493503
 17       -0.8596317948
 18        0.0000000000
 19        0.6210760390
 20        0.4734279756
 21        2.0988493503
 22       -0.8596317948
 23        0.0000000000
 24       -0.6210760390
 25        0.4734279756
 Sym= A
 Ene=   4.15179681186127     
 Spin= Alpha
 Occup= 0.0
  1        0.0000000000
  2        0.0000000000
  3        0.0000000000
  4        0.0000000000
  5        0.6529236508
  6        0.0000000000
  7        0.0000000000
  8        0.8126238840
  9        0.0000000000
 10        0.0000000000
 11        0.0000000000
 12        0.0000000000
 13        0.0000000000
 14        0.0000000000
 15       -1.3272996419
 16        1.7984296595
 17       -0.6145886614
 18        0.0000000000
 19        0.5905545311
 20        0.5134450290
 21       -1.7984296595
 22        0.6145886614
 23        0.0000000000
 24        0.5905545311
 25       -0.5134450290
