 Entering Gaussian System, Link 0=g09
 Initial command:
 /soft/gaussian/09-e.01/g09/l1.exe "/scratch/kmoore/Gau-9262.inp" -scrdir="/scratch/kmoore"
 Entering Link 1 = /soft/gaussian/09-e.01/g09/l1.exe PID=      9263.
  
 Copyright (c) 1988,1990,1992,1993,1995,1998,2003,2009,2015,
            Gaussian, Inc.  All Rights Reserved.
  
 This is part of the Gaussian(R) 09 program.  It is based on
 the Gaussian(R) 03 system (copyright 2003, Gaussian, Inc.),
 the Gaussian(R) 98 system (copyright 1998, Gaussian, Inc.),
 the Gaussian(R) 94 system (copyright 1995, Gaussian, Inc.),
 the Gaussian 92(TM) system (copyright 1992, Gaussian, Inc.),
 the Gaussian 90(TM) system (copyright 1990, Gaussian, Inc.),
 the Gaussian 88(TM) system (copyright 1988, Gaussian, Inc.),
 the Gaussian 86(TM) system (copyright 1986, Carnegie Mellon
 University), and the Gaussian 82(TM) system (copyright 1983,
 Carnegie Mellon University). Gaussian is a federally registered
 trademark of Gaussian, Inc.
  
 This software contains proprietary and confidential information,
 including trade secrets, belonging to Gaussian, Inc.
  
 This software is provided under written license and may be
 used, copied, transmitted, or stored only in accord with that
 written license.
  
 The following legend is applicable only to US Government
 contracts under FAR:
  
                    RESTRICTED RIGHTS LEGEND
  
 Use, reproduction and disclosure by the US Government is
 subject to restrictions as set forth in subparagraphs (a)
 and (c) of the Commercial Computer Software - Restricted
 Rights clause in FAR 52.227-19.
  
 Gaussian, Inc.
 340 Quinnipiac St., Bldg. 40, Wallingford CT 06492
  
  
 ---------------------------------------------------------------
 Warning -- This program may not be used in any manner that
 competes with the business of Gaussian, Inc. or will provide
 assistance to any competitor of Gaussian, Inc.  The licensee
 of this program is prohibited from giving any competitor of
 Gaussian, Inc. access to this program.  By using this program,
 the user acknowledges that Gaussian, Inc. is engaged in the
 business of creating and licensing software in the field of
 computational chemistry and represents and warrants to the
 licensee that it is not a competitor of Gaussian, Inc. and that
 it will not use this program in any manner prohibited above.
 ---------------------------------------------------------------
  

 Cite this work as:
 Gaussian 09, Revision E.01,
 M. J. Frisch, G. W. Trucks, H. B. Schlegel, G. E. Scuseria, 
 M. A. Robb, J. R. Cheeseman, G. Scalmani, V. Barone, B. Mennucci, 
 G. A. Petersson, H. Nakatsuji, M. Caricato, X. Li, H. P. Hratchian, 
 A. F. Izmaylov, J. Bloino, G. Zheng, J. L. Sonnenberg, M. Hada, 
 M. Ehara, K. Toyota, R. Fukuda, J. Hasegawa, M. Ishida, T. Nakajima, 
 Y. Honda, O. Kitao, H. Nakai, T. Vreven, J. A. Montgomery, Jr., 
 J. E. Peralta, F. Ogliaro, M. Bearpark, J. J. Heyd, E. Brothers, 
 K. N. Kudin, V. N. Staroverov, T. Keith, R. Kobayashi, J. Normand, 
 K. Raghavachari, A. Rendell, J. C. Burant, S. S. Iyengar, J. Tomasi, 
 M. Cossi, N. Rega, J. M. Millam, M. Klene, J. E. Knox, J. B. Cross, 
 V. Bakken, C. Adamo, J. Jaramillo, R. Gomperts, R. E. Stratmann, 
 O. Yazyev, A. J. Austin, R. Cammi, C. Pomelli, J. W. Ochterski, 
 R. L. Martin, K. Morokuma, V. G. Zakrzewski, G. A. Voth, 
 P. Salvador, J. J. Dannenberg, S. Dapprich, A. D. Daniels, 
 O. Farkas, J. B. Foresman, J. V. Ortiz, J. Cioslowski, 
 and D. J. Fox, Gaussian, Inc., Wallingford CT, 2013.
 
 ******************************************
 Gaussian 09:  ES64L-G09RevE.01 30-Nov-2015
                13-Dec-2018 
 ******************************************
 %mem=30gb
 %nproc=8
 Will use up to    8 processors via shared memory.
 --------------------------------------------------------------------
 #B3LYP/cc-pVTZ Integral(Grid=SuperFineGrid) Opt=(Tight) Freq(Anharm)
 --------------------------------------------------------------------
 1/7=10,14=-1,18=20,19=15,26=5,38=1,80=1/1,3;
 2/9=110,12=2,17=6,18=5,40=1/2;
 3/5=16,6=1,11=2,16=1,25=1,30=1,71=1,74=-5,75=-7/1,2,3;
 4//1;
 5/5=2,38=5/2;
 6/7=2,8=2,9=2,10=2,28=1/1;
 7//1,2,3,16;
 1/7=10,14=-1,18=20,19=15,26=5,80=1/3(2);
 2/9=110/2;
 99/8=1000/99;
 2/9=110/2;
 3/5=16,6=1,11=2,16=1,25=1,30=1,71=1,74=-5,75=-7/1,2,3;
 4/5=5,16=3,69=1/1;
 5/5=2,38=5/2;
 7//1,2,3,16;
 1/7=10,14=-1,18=20,19=15,26=5,80=1/3(-5);
 2/9=110/2;
 6/7=2,8=2,9=2,10=2,19=2,28=1/1;
 99/8=1000,9=1/99;
 -----
 Water
 -----
 Symbolic Z-matrix:
 Charge =  0 Multiplicity = 1
 O
 H                    1    r1
 H                    1    r1       2    a1
       Variables:
  r1                    0.98                     
  a1                  104.5                      
 

 GradGradGradGradGradGradGradGradGradGradGradGradGradGradGradGradGradGrad
 Berny optimization.
 Initialization pass.
                           ----------------------------
                           !    Initial Parameters    !
                           ! (Angstroms and Degrees)  !
 --------------------------                            --------------------------
 ! Name  Definition              Value          Derivative Info.                !
 --------------------------------------------------------------------------------
 ! R1    R(1,2)                  0.98           estimate D2E/DX2                !
 ! R2    R(1,3)                  0.98           estimate D2E/DX2                !
 ! A1    A(2,1,3)              104.5            estimate D2E/DX2                !
 --------------------------------------------------------------------------------
 Trust Radius=3.00D-01 FncErr=1.00D-07 GrdErr=1.00D-07
 Number of steps in this run=     20 maximum allowed number of steps=    100.
 GradGradGradGradGradGradGradGradGradGradGradGradGradGradGradGradGradGrad

                          Input orientation:                          
 ---------------------------------------------------------------------
 Center     Atomic      Atomic             Coordinates (Angstroms)
 Number     Number       Type             X           Y           Z
 ---------------------------------------------------------------------
      1          8           0        0.000000    0.000000    0.000000
      2          1           0        0.000000    0.000000    0.980000
      3          1           0        0.948785    0.000000   -0.245372
 ---------------------------------------------------------------------
                    Distance matrix (angstroms):
                    1          2          3
     1  O    0.000000
     2  H    0.980000   0.000000
     3  H    0.980000   1.549752   0.000000
 Stoichiometry    H2O
 Framework group  C2V[C2(O),SGV(H2)]
 Deg. of freedom     2
 Full point group                 C2V     NOp   4
 Largest Abelian subgroup         C2V     NOp   4
 Largest concise Abelian subgroup C2      NOp   2
                         Standard orientation:                         
 ---------------------------------------------------------------------
 Center     Atomic      Atomic             Coordinates (Angstroms)
 Number     Number       Type             X           Y           Z
 ---------------------------------------------------------------------
      1          8           0        0.000000    0.000000    0.119995
      2          1           0        0.000000    0.774876   -0.479978
      3          1           0       -0.000000   -0.774876   -0.479978
 ---------------------------------------------------------------------
 Rotational constants (GHZ):    784.3034803    417.5782613    272.4960970
 Standard basis: CC-pVTZ (5D, 7F)
 There are    27 symmetry adapted cartesian basis functions of A1  symmetry.
 There are     7 symmetry adapted cartesian basis functions of A2  symmetry.
 There are    12 symmetry adapted cartesian basis functions of B1  symmetry.
 There are    19 symmetry adapted cartesian basis functions of B2  symmetry.
 There are    23 symmetry adapted basis functions of A1  symmetry.
 There are     7 symmetry adapted basis functions of A2  symmetry.
 There are    11 symmetry adapted basis functions of B1  symmetry.
 There are    17 symmetry adapted basis functions of B2  symmetry.
    58 basis functions,    86 primitive gaussians,    65 cartesian basis functions
     5 alpha electrons        5 beta electrons
       nuclear repulsion energy         8.9810872755 Hartrees.
 NAtoms=    3 NActive=    3 NUniq=    2 SFac= 2.25D+00 NAtFMM=   60 NAOKFM=F Big=F
 Integral buffers will be    131072 words long.
 Raffenetti 2 integral format.
 Two-electron integral symmetry is turned on.
 One-electron integrals computed using PRISM.
 NBasis=    58 RedAO= T EigKep=  3.80D-03  NBF=    23     7    11    17
 NBsUse=    58 1.00D-06 EigRej= -1.00D+00 NBFU=    23     7    11    17
 ExpMin= 1.03D-01 ExpMax= 1.53D+04 ExpMxC= 5.22D+02 IAcc=3 IRadAn=         7 AccDes= 0.00D+00
 Harris functional with IExCor=  402 and IRadAn=       7 diagonalized for initial guess.
 HarFok:  IExCor=  402 AccDes= 0.00D+00 IRadAn=         7 IDoV= 1 UseB2=F ITyADJ=14
 ICtDFT=  3500011 ScaDFX=  1.000000  1.000000  1.000000  1.000000
 FoFCou: FMM=F IPFlag=           0 FMFlag=      100000 FMFlg1=           0
         NFxFlg=           0 DoJE=T BraDBF=F KetDBF=T FulRan=T
         wScrn=  0.000000 ICntrl=     500 IOpCl=  0 I1Cent=   200000004 NGrid=           0
         NMat0=    1 NMatS0=      1 NMatT0=    0 NMatD0=    1 NMtDS0=    0 NMtDT0=    0
 Petite list used in FoFCou.
 Initial guess orbital symmetries:
       Occupied  (A1) (A1) (B2) (A1) (B1)
       Virtual   (A1) (B2) (B2) (A1) (A1) (B1) (B2) (A1) (A2) (B1)
                 (A1) (B2) (B2) (A1) (B1) (A2) (B2) (A1) (A1) (A1)
                 (B2) (B1) (A1) (B1) (A2) (B2) (B2) (A1) (A2) (B2)
                 (A1) (B1) (A2) (A1) (B2) (B1) (B2) (A1) (A1) (B2)
                 (B1) (A1) (B1) (A2) (A1) (B1) (B2) (A1) (A2) (A1)
                 (B2) (B2) (A1)
 The electronic state of the initial guess is 1-A1.
 Keep R1 ints in memory in symmetry-blocked form, NReq=3462605.
 Requested convergence on RMS density matrix=1.00D-08 within 128 cycles.
 Requested convergence on MAX density matrix=1.00D-06.
 Requested convergence on             energy=1.00D-06.
 No special actions if energy rises.
 Integral accuracy reduced to 1.0D-05 until final iterations.
 Initial convergence to 1.0D-05 achieved.  Increase integral accuracy.
 SCF Done:  E(RB3LYP) =  -76.4592138001     A.U. after    9 cycles
            NFock=  9  Conv=0.73D-08     -V/T= 2.0060

 **********************************************************************

            Population analysis using the SCF density.

 **********************************************************************

 Orbital symmetries:
       Occupied  (A1) (A1) (B2) (A1) (B1)
       Virtual   (A1) (B2) (B2) (A1) (A1) (B1) (B2) (A1) (A2) (B1)
                 (A1) (B2) (B2) (A1) (B1) (A2) (B2) (A1) (A1) (A1)
                 (B2) (B1) (A1) (A2) (B2) (B1) (B2) (A1) (A2) (B1)
                 (B2) (A1) (A2) (A1) (B2) (B1) (B2) (A1) (A1) (B2)
                 (B1) (A1) (B1) (A2) (A1) (B1) (B2) (A1) (A2) (A1)
                 (B2) (B2) (A1)
 The electronic state is 1-A1.
 Alpha  occ. eigenvalues --  -19.12403  -1.00037  -0.52054  -0.38397  -0.30806
 Alpha virt. eigenvalues --    0.02060   0.09255   0.35901   0.40301   0.49495
 Alpha virt. eigenvalues --    0.57867   0.61912   0.62100   0.67338   0.77188
 Alpha virt. eigenvalues --    0.93513   0.99578   1.26915   1.28286   1.75482
 Alpha virt. eigenvalues --    1.77933   1.83311   1.88237   1.96572   2.24032
 Alpha virt. eigenvalues --    2.59239   3.05221   3.18164   3.25416   3.32512
 Alpha virt. eigenvalues --    3.36108   3.50095   3.57379   3.62869   3.68753
 Alpha virt. eigenvalues --    3.69679   3.75636   3.96436   3.99740   4.18882
 Alpha virt. eigenvalues --    4.25941   4.47474   4.68020   4.80844   5.07691
 Alpha virt. eigenvalues --    5.56179   6.02667   6.35139   6.37659   6.44925
 Alpha virt. eigenvalues --    6.51322   6.52187   6.64619   6.73369   6.93863
 Alpha virt. eigenvalues --    7.24197   7.66605  11.81782
          Condensed to atoms (all electrons):
               1          2          3
     1  O    7.738645   0.355588   0.355588
     2  H    0.355588   0.465122  -0.045620
     3  H    0.355588  -0.045620   0.465122
 Mulliken charges:
               1
     1  O   -0.449821
     2  H    0.224911
     3  H    0.224911
 Sum of Mulliken charges =  -0.00000
 Mulliken charges with hydrogens summed into heavy atoms:
               1
     1  O   -0.000000
 Electronic spatial extent (au):  <R**2>=             19.6380
 Charge=             -0.0000 electrons
 Dipole moment (field-independent basis, Debye):
    X=             -0.0000    Y=             -0.0000    Z=             -1.9268  Tot=              1.9268
 Quadrupole moment (field-independent basis, Debye-Ang):
   XX=             -7.3949   YY=             -4.3035   ZZ=             -6.1808
   XY=              0.0000   XZ=              0.0000   YZ=             -0.0000
 Traceless Quadrupole moment (field-independent basis, Debye-Ang):
   XX=             -1.4352   YY=              1.6562   ZZ=             -0.2211
   XY=              0.0000   XZ=              0.0000   YZ=             -0.0000
 Octapole moment (field-independent basis, Debye-Ang**2):
  XXX=              0.0000  YYY=              0.0000  ZZZ=             -1.0450  XYY=             -0.0000
  XXY=              0.0000  XXZ=             -0.2348  XZZ=              0.0000  YZZ=              0.0000
  YYZ=             -1.3097  XYZ=             -0.0000
 Hexadecapole moment (field-independent basis, Debye-Ang**3):
 XXXX=             -5.8348 YYYY=             -6.3625 ZZZZ=             -6.8694 XXXY=             -0.0000
 XXXZ=             -0.0000 YYYX=             -0.0000 YYYZ=              0.0000 ZZZX=             -0.0000
 ZZZY=             -0.0000 XXYY=             -2.3579 XXZZ=             -2.1732 YYZZ=             -1.8529
 XXYZ=             -0.0000 YYXZ=              0.0000 ZZXY=             -0.0000
 N-N= 8.981087275482D+00 E-N=-1.987943380058D+02  KE= 7.600587551090D+01
 Symmetry A1   KE= 6.780074081247D+01
 Symmetry A2   KE=-1.898857814894D-20
 Symmetry B1   KE= 4.599618069089D+00
 Symmetry B2   KE= 3.605516629338D+00
 Calling FoFJK, ICntrl=      2127 FMM=F ISym2X=1 I1Cent= 0 IOpClX= 0 NMat=1 NMatS=1 NMatT=0.
 ***** Axes restored to original set *****
 -------------------------------------------------------------------
 Center     Atomic                   Forces (Hartrees/Bohr)
 Number     Number              X              Y              Z
 -------------------------------------------------------------------
      1        8           0.015458950    0.000000000    0.011969598
      2        1           0.001124103   -0.000000000   -0.017419354
      3        1          -0.016583054   -0.000000000    0.005449756
 -------------------------------------------------------------------
 Cartesian Forces:  Max     0.017419354 RMS     0.010496801

 GradGradGradGradGradGradGradGradGradGradGradGradGradGradGradGradGradGrad
 Berny optimization.
 FormGI is forming the generalized inverse of G from B-inverse, IUseBI=4.
 Internal  Forces:  Max     0.017419354 RMS     0.014273536
 Search for a local minimum.
 Step number   1 out of a maximum of   20
 All quantities printed in internal units (Hartrees-Bohrs-Radians)
 Mixed Optimization -- RFO/linear search
 Second derivative matrix not updated -- first step.
 The second derivative matrix:
                          R1        R2        A1
           R1           0.51385
           R2           0.00000   0.51385
           A1           0.00000   0.00000   0.16000
 ITU=  0
     Eigenvalues ---    0.16000   0.51385   0.51385
 RFO step:  Lambda=-1.20513840D-03 EMin= 1.60000000D-01
 Linear search not attempted -- first point.
 Iteration  1 RMS(Cart)=  0.02830709 RMS(Int)=  0.00014210
 Iteration  2 RMS(Cart)=  0.00012241 RMS(Int)=  0.00000001
 Iteration  3 RMS(Cart)=  0.00000001 RMS(Int)=  0.00000000
 ClnCor:  largest displacement from symmetrization is 3.23D-15 for atom     3.
 Variable       Old X    -DE/DX   Delta X   Delta X   Delta X     New X
                                 (Linear)    (Quad)   (Total)
    R1        1.85193  -0.01742   0.00000  -0.03382  -0.03382   1.81811
    R2        1.85193  -0.01742   0.00000  -0.03382  -0.03382   1.81811
    A1        1.82387  -0.00208   0.00000  -0.01291  -0.01291   1.81096
         Item               Value     Threshold  Converged?
 Maximum Force            0.017419     0.000015     NO 
 RMS     Force            0.014274     0.000010     NO 
 Maximum Displacement     0.029187     0.000060     NO 
 RMS     Displacement     0.028247     0.000040     NO 
 Predicted change in Energy=-6.040518D-04
 GradGradGradGradGradGradGradGradGradGradGradGradGradGradGradGradGradGrad

                          Input orientation:                          
 ---------------------------------------------------------------------
 Center     Atomic      Atomic             Coordinates (Angstroms)
 Number     Number       Type             X           Y           Z
 ---------------------------------------------------------------------
      1          8           0        0.003193   -0.000000    0.002472
      2          1           0        0.009405   -0.000000    0.964555
      3          1           0        0.936187    0.000000   -0.232400
 ---------------------------------------------------------------------
                    Distance matrix (angstroms):
                    1          2          3
     1  O    0.000000
     2  H    0.962103   0.000000
     3  H    0.962103   1.513811   0.000000
 Stoichiometry    H2O
 Framework group  C2V[C2(O),SGV(H2)]
 Deg. of freedom     2
 Full point group                 C2V     NOp   4
 Largest Abelian subgroup         C2V     NOp   4
 Largest concise Abelian subgroup C2      NOp   2
                         Standard orientation:                         
 ---------------------------------------------------------------------
 Center     Atomic      Atomic             Coordinates (Angstroms)
 Number     Number       Type             X           Y           Z
 ---------------------------------------------------------------------
      1          8           0        0.000000   -0.000000    0.118783
      2          1           0       -0.000000    0.756906   -0.475133
      3          1           0       -0.000000   -0.756906   -0.475133
 ---------------------------------------------------------------------
 Rotational constants (GHZ):    800.3831188    437.6414501    282.9352806
 Standard basis: CC-pVTZ (5D, 7F)
 There are    27 symmetry adapted cartesian basis functions of A1  symmetry.
 There are     7 symmetry adapted cartesian basis functions of A2  symmetry.
 There are    12 symmetry adapted cartesian basis functions of B1  symmetry.
 There are    19 symmetry adapted cartesian basis functions of B2  symmetry.
 There are    23 symmetry adapted basis functions of A1  symmetry.
 There are     7 symmetry adapted basis functions of A2  symmetry.
 There are    11 symmetry adapted basis functions of B1  symmetry.
 There are    17 symmetry adapted basis functions of B2  symmetry.
    58 basis functions,    86 primitive gaussians,    65 cartesian basis functions
     5 alpha electrons        5 beta electrons
       nuclear repulsion energy         9.1499083328 Hartrees.
 NAtoms=    3 NActive=    3 NUniq=    2 SFac= 2.25D+00 NAtFMM=   60 NAOKFM=F Big=F
 Integral buffers will be    131072 words long.
 Raffenetti 2 integral format.
 Two-electron integral symmetry is turned on.
 One-electron integrals computed using PRISM.
 NBasis=    58 RedAO= T EigKep=  3.59D-03  NBF=    23     7    11    17
 NBsUse=    58 1.00D-06 EigRej= -1.00D+00 NBFU=    23     7    11    17
 Initial guess from the checkpoint file:  "/scratch/kmoore/Gau-9263.chk"
 B after Tr=     0.000000   -0.000000    0.000000
         Rot=    1.000000   -0.000000   -0.000000    0.000000 Ang=   0.00 deg.
 Initial guess orbital symmetries:
       Occupied  (A1) (A1) (B2) (A1) (B1)
       Virtual   (A1) (A1) (A1) (A1) (A1) (A1) (A1) (A1) (A1) (A1)
                 (A1) (A1) (A1) (A1) (A1) (A1) (A1) (A1) (A1) (A1)
                 (A2) (A2) (A2) (A2) (A2) (A2) (A2) (B1) (B1) (B1)
                 (B1) (B1) (B1) (B1) (B1) (B1) (B1) (B2) (B2) (B2)
                 (B2) (B2) (B2) (B2) (B2) (B2) (B2) (B2) (B2) (B2)
                 (B2) (B2) (B2)
 ExpMin= 1.03D-01 ExpMax= 1.53D+04 ExpMxC= 5.22D+02 IAcc=3 IRadAn=         5 AccDes= 0.00D+00
 Harris functional with IExCor=  402 and IRadAn=       5 diagonalized for initial guess.
 HarFok:  IExCor=  402 AccDes= 0.00D+00 IRadAn=         5 IDoV= 1 UseB2=F ITyADJ=14
 ICtDFT=  3500011 ScaDFX=  1.000000  1.000000  1.000000  1.000000
 FoFCou: FMM=F IPFlag=           0 FMFlag=      100000 FMFlg1=           0
         NFxFlg=           0 DoJE=T BraDBF=F KetDBF=T FulRan=T
         wScrn=  0.000000 ICntrl=     500 IOpCl=  0 I1Cent=   200000004 NGrid=           0
         NMat0=    1 NMatS0=      1 NMatT0=    0 NMatD0=    1 NMtDS0=    0 NMtDT0=    0
 Petite list used in FoFCou.
 Keep R1 ints in memory in symmetry-blocked form, NReq=3462605.
 Requested convergence on RMS density matrix=1.00D-08 within 128 cycles.
 Requested convergence on MAX density matrix=1.00D-06.
 Requested convergence on             energy=1.00D-06.
 No special actions if energy rises.
 Integral accuracy reduced to 1.0D-05 until final iterations.
 Initial convergence to 1.0D-05 achieved.  Increase integral accuracy.
 SCF Done:  E(RB3LYP) =  -76.4598264758     A.U. after    9 cycles
            NFock=  9  Conv=0.77D-09     -V/T= 2.0051
 Calling FoFJK, ICntrl=      2127 FMM=F ISym2X=1 I1Cent= 0 IOpClX= 0 NMat=1 NMatS=1 NMatT=0.
 ***** Axes restored to original set *****
 -------------------------------------------------------------------
 Center     Atomic                   Forces (Hartrees/Bohr)
 Number     Number              X              Y              Z
 -------------------------------------------------------------------
      1        8           0.001739914    0.000000000    0.001347185
      2        1          -0.001141522   -0.000000000   -0.000322862
      3        1          -0.000598393   -0.000000000   -0.001024323
 -------------------------------------------------------------------
 Cartesian Forces:  Max     0.001739914 RMS     0.000922366

 GradGradGradGradGradGradGradGradGradGradGradGradGradGradGradGradGradGrad
 Berny optimization.
 Using GEDIIS/GDIIS optimizer.
 FormGI is forming the generalized inverse of G from B-inverse, IUseBI=4.
 Internal  Forces:  Max     0.002071580 RMS     0.001226042
 Search for a local minimum.
 Step number   2 out of a maximum of   20
 All quantities printed in internal units (Hartrees-Bohrs-Radians)
 Mixed Optimization -- RFO/linear search
 Update second derivatives using D2CorX and points    1    2
 DE= -6.13D-04 DEPred=-6.04D-04 R= 1.01D+00
 TightC=F SS=  1.41D+00  RLast= 4.95D-02 DXNew= 5.0454D-01 1.4863D-01
 Trust test= 1.01D+00 RLast= 4.95D-02 DXMaxT set to 3.00D-01
 The second derivative matrix:
                          R1        R2        A1
           R1           0.50407
           R2          -0.00978   0.50407
           A1           0.02881   0.02881   0.17071
 ITU=  1  0
 Use linear search instead of GDIIS.
     Eigenvalues ---    0.16566   0.49934   0.51385
 RFO step:  Lambda=-2.70180297D-05 EMin= 1.65658538D-01
 Quartic linear search produced a step of -0.00344.
 Iteration  1 RMS(Cart)=  0.00673708 RMS(Int)=  0.00002998
 Iteration  2 RMS(Cart)=  0.00002812 RMS(Int)=  0.00000000
 Iteration  3 RMS(Cart)=  0.00000000 RMS(Int)=  0.00000000
 ClnCor:  largest displacement from symmetrization is 3.43D-15 for atom     3.
 Variable       Old X    -DE/DX   Delta X   Delta X   Delta X     New X
                                 (Linear)    (Quad)   (Total)
    R1        1.81811  -0.00033   0.00012  -0.00153  -0.00141   1.81670
    R2        1.81811  -0.00033   0.00012  -0.00153  -0.00141   1.81670
    A1        1.81096   0.00207   0.00004   0.01256   0.01260   1.82356
         Item               Value     Threshold  Converged?
 Maximum Force            0.002072     0.000015     NO 
 RMS     Force            0.001226     0.000010     NO 
 Maximum Displacement     0.006707     0.000060     NO 
 RMS     Displacement     0.006723     0.000040     NO 
 Predicted change in Energy=-1.352318D-05
 GradGradGradGradGradGradGradGradGradGradGradGradGradGradGradGradGradGrad

                          Input orientation:                          
 ---------------------------------------------------------------------
 Center     Atomic      Atomic             Coordinates (Angstroms)
 Number     Number       Type             X           Y           Z
 ---------------------------------------------------------------------
      1          8           0        0.005954    0.000000    0.004610
      2          1           0        0.006104   -0.000000    0.965967
      3          1           0        0.936727    0.000000   -0.235949
 ---------------------------------------------------------------------
                    Distance matrix (angstroms):
                    1          2          3
     1  O    0.000000
     2  H    0.961357   0.000000
     3  H    0.961357   1.520086   0.000000
 Stoichiometry    H2O
 Framework group  C2V[C2(O),SGV(H2)]
 Deg. of freedom     2
 Full point group                 C2V     NOp   4
 Largest Abelian subgroup         C2V     NOp   4
 Largest concise Abelian subgroup C2      NOp   2
                         Standard orientation:                         
 ---------------------------------------------------------------------
 Center     Atomic      Atomic             Coordinates (Angstroms)
 Number     Number       Type             X           Y           Z
 ---------------------------------------------------------------------
      1          8           0        0.000000    0.000000    0.117736
      2          1           0       -0.000000    0.760043   -0.470943
      3          1           0       -0.000000   -0.760043   -0.470943
 ---------------------------------------------------------------------
 Rotational constants (GHZ):    814.6883281    434.0360568    283.1722626
 Standard basis: CC-pVTZ (5D, 7F)
 There are    27 symmetry adapted cartesian basis functions of A1  symmetry.
 There are     7 symmetry adapted cartesian basis functions of A2  symmetry.
 There are    12 symmetry adapted cartesian basis functions of B1  symmetry.
 There are    19 symmetry adapted cartesian basis functions of B2  symmetry.
 There are    23 symmetry adapted basis functions of A1  symmetry.
 There are     7 symmetry adapted basis functions of A2  symmetry.
 There are    11 symmetry adapted basis functions of B1  symmetry.
 There are    17 symmetry adapted basis functions of B2  symmetry.
    58 basis functions,    86 primitive gaussians,    65 cartesian basis functions
     5 alpha electrons        5 beta electrons
       nuclear repulsion energy         9.1552938567 Hartrees.
 NAtoms=    3 NActive=    3 NUniq=    2 SFac= 2.25D+00 NAtFMM=   60 NAOKFM=F Big=F
 Integral buffers will be    131072 words long.
 Raffenetti 2 integral format.
 Two-electron integral symmetry is turned on.
 One-electron integrals computed using PRISM.
 NBasis=    58 RedAO= T EigKep=  3.57D-03  NBF=    23     7    11    17
 NBsUse=    58 1.00D-06 EigRej= -1.00D+00 NBFU=    23     7    11    17
 Initial guess from the checkpoint file:  "/scratch/kmoore/Gau-9263.chk"
 B after Tr=    -0.000000    0.000000   -0.000000
         Rot=    1.000000   -0.000000   -0.000000   -0.000000 Ang=   0.00 deg.
 Initial guess orbital symmetries:
       Occupied  (A1) (A1) (B2) (A1) (B1)
       Virtual   (A1) (A1) (A1) (A1) (A1) (A1) (A1) (A1) (A1) (A1)
                 (A1) (A1) (A1) (A1) (A1) (A1) (A1) (A1) (A1) (A1)
                 (A2) (A2) (A2) (A2) (A2) (A2) (A2) (B1) (B1) (B1)
                 (B1) (B1) (B1) (B1) (B1) (B1) (B1) (B2) (B2) (B2)
                 (B2) (B2) (B2) (B2) (B2) (B2) (B2) (B2) (B2) (B2)
                 (B2) (B2) (B2)
 Keep R1 ints in memory in symmetry-blocked form, NReq=3462605.
 Requested convergence on RMS density matrix=1.00D-08 within 128 cycles.
 Requested convergence on MAX density matrix=1.00D-06.
 Requested convergence on             energy=1.00D-06.
 No special actions if energy rises.
 SCF Done:  E(RB3LYP) =  -76.4598407243     A.U. after    6 cycles
            NFock=  6  Conv=0.72D-08     -V/T= 2.0051
 Calling FoFJK, ICntrl=      2127 FMM=F ISym2X=1 I1Cent= 0 IOpClX= 0 NMat=1 NMatS=1 NMatT=0.
 ***** Axes restored to original set *****
 -------------------------------------------------------------------
 Center     Atomic                   Forces (Hartrees/Bohr)
 Number     Number              X              Y              Z
 -------------------------------------------------------------------
      1        8           0.000070190    0.000000000    0.000054347
      2        1          -0.000067765   -0.000000000    0.000015020
      3        1          -0.000002425   -0.000000000   -0.000069367
 -------------------------------------------------------------------
 Cartesian Forces:  Max     0.000070190 RMS     0.000044116

 GradGradGradGradGradGradGradGradGradGradGradGradGradGradGradGradGradGrad
 Berny optimization.
 Using GEDIIS/GDIIS optimizer.
 FormGI is forming the generalized inverse of G from B-inverse, IUseBI=4.
 Internal  Forces:  Max     0.000123113 RMS     0.000072128
 Search for a local minimum.
 Step number   3 out of a maximum of   20
 All quantities printed in internal units (Hartrees-Bohrs-Radians)
 Mixed Optimization -- En-DIIS/RFO-DIIS
 Update second derivatives using D2CorX and points    1    2    3
 DE= -1.42D-05 DEPred=-1.35D-05 R= 1.05D+00
 TightC=F SS=  1.41D+00  RLast= 1.28D-02 DXNew= 5.0454D-01 3.8273D-02
 Trust test= 1.05D+00 RLast= 1.28D-02 DXMaxT set to 3.00D-01
 The second derivative matrix:
                          R1        R2        A1
           R1           0.50527
           R2          -0.00857   0.50527
           A1           0.02817   0.02817   0.16093
 ITU=  1  1  0
 Use linear search instead of GDIIS.
     Eigenvalues ---    0.15627   0.50136   0.51385
 RFO step:  Lambda= 0.00000000D+00 EMin= 1.56268868D-01
 Quartic linear search produced a step of  0.05946.
 Iteration  1 RMS(Cart)=  0.00043380 RMS(Int)=  0.00000011
 Iteration  2 RMS(Cart)=  0.00000010 RMS(Int)=  0.00000000
 ClnCor:  largest displacement from symmetrization is 4.60D-16 for atom     1.
 Variable       Old X    -DE/DX   Delta X   Delta X   Delta X     New X
                                 (Linear)    (Quad)   (Total)
    R1        1.81670   0.00002  -0.00008   0.00007  -0.00001   1.81669
    R2        1.81670   0.00002  -0.00008   0.00007  -0.00001   1.81669
    A1        1.82356   0.00012   0.00075   0.00002   0.00077   1.82433
         Item               Value     Threshold  Converged?
 Maximum Force            0.000123     0.000015     NO 
 RMS     Force            0.000072     0.000010     NO 
 Maximum Displacement     0.000447     0.000060     NO 
 RMS     Displacement     0.000434     0.000040     NO 
 Predicted change in Energy=-4.717746D-08
 GradGradGradGradGradGradGradGradGradGradGradGradGradGradGradGradGradGrad

                          Input orientation:                          
 ---------------------------------------------------------------------
 Center     Atomic      Atomic             Coordinates (Angstroms)
 Number     Number       Type             X           Y           Z
 ---------------------------------------------------------------------
      1          8           0        0.006111   -0.000000    0.004732
      2          1           0        0.005889   -0.000000    0.966081
      3          1           0        0.936784    0.000000   -0.236186
 ---------------------------------------------------------------------
                    Distance matrix (angstroms):
                    1          2          3
     1  O    0.000000
     2  H    0.961350   0.000000
     3  H    0.961350   1.520530   0.000000
 Stoichiometry    H2O
 Framework group  C2V[C2(O),SGV(H2)]
 Deg. of freedom     2
 Full point group                 C2V     NOp   4
 Largest Abelian subgroup         C2V     NOp   4
 Largest concise Abelian subgroup C2      NOp   2
                         Standard orientation:                         
 ---------------------------------------------------------------------
 Center     Atomic      Atomic             Coordinates (Angstroms)
 Number     Number       Type             X           Y           Z
 ---------------------------------------------------------------------
      1          8           0        0.000000    0.000000    0.117676
      2          1           0       -0.000000    0.760265   -0.470704
      3          1           0       -0.000000   -0.760265   -0.470704
 ---------------------------------------------------------------------
 Rotational constants (GHZ):    815.5157229    433.7826086    283.1641800
 Standard basis: CC-pVTZ (5D, 7F)
 There are    27 symmetry adapted cartesian basis functions of A1  symmetry.
 There are     7 symmetry adapted cartesian basis functions of A2  symmetry.
 There are    12 symmetry adapted cartesian basis functions of B1  symmetry.
 There are    19 symmetry adapted cartesian basis functions of B2  symmetry.
 There are    23 symmetry adapted basis functions of A1  symmetry.
 There are     7 symmetry adapted basis functions of A2  symmetry.
 There are    11 symmetry adapted basis functions of B1  symmetry.
 There are    17 symmetry adapted basis functions of B2  symmetry.
    58 basis functions,    86 primitive gaussians,    65 cartesian basis functions
     5 alpha electrons        5 beta electrons
       nuclear repulsion energy         9.1552592643 Hartrees.
 NAtoms=    3 NActive=    3 NUniq=    2 SFac= 2.25D+00 NAtFMM=   60 NAOKFM=F Big=F
 Integral buffers will be    131072 words long.
 Raffenetti 2 integral format.
 Two-electron integral symmetry is turned on.
 One-electron integrals computed using PRISM.
 NBasis=    58 RedAO= T EigKep=  3.57D-03  NBF=    23     7    11    17
 NBsUse=    58 1.00D-06 EigRej= -1.00D+00 NBFU=    23     7    11    17
 Initial guess from the checkpoint file:  "/scratch/kmoore/Gau-9263.chk"
 B after Tr=    -0.000000   -0.000000    0.000000
         Rot=    1.000000   -0.000000   -0.000000    0.000000 Ang=   0.00 deg.
 Initial guess orbital symmetries:
       Occupied  (A1) (A1) (B2) (A1) (B1)
       Virtual   (A1) (A1) (A1) (A1) (A1) (A1) (A1) (A1) (A1) (A1)
                 (A1) (A1) (A1) (A1) (A1) (A1) (A1) (A1) (A1) (A1)
                 (A2) (A2) (A2) (A2) (A2) (A2) (A2) (B1) (B1) (B1)
                 (B1) (B1) (B1) (B1) (B1) (B1) (B1) (B2) (B2) (B2)
                 (B2) (B2) (B2) (B2) (B2) (B2) (B2) (B2) (B2) (B2)
                 (B2) (B2) (B2)
 Keep R1 ints in memory in symmetry-blocked form, NReq=3462605.
 Requested convergence on RMS density matrix=1.00D-08 within 128 cycles.
 Requested convergence on MAX density matrix=1.00D-06.
 Requested convergence on             energy=1.00D-06.
 No special actions if energy rises.
 SCF Done:  E(RB3LYP) =  -76.4598407716     A.U. after    5 cycles
            NFock=  5  Conv=0.32D-08     -V/T= 2.0051
 Calling FoFJK, ICntrl=      2127 FMM=F ISym2X=1 I1Cent= 0 IOpClX= 0 NMat=1 NMatS=1 NMatT=0.
 ***** Axes restored to original set *****
 -------------------------------------------------------------------
 Center     Atomic                   Forces (Hartrees/Bohr)
 Number     Number              X              Y              Z
 -------------------------------------------------------------------
      1        8           0.000001640    0.000000000    0.000001270
      2        1           0.000000197   -0.000000000   -0.000001949
      3        1          -0.000001837   -0.000000000    0.000000679
 -------------------------------------------------------------------
 Cartesian Forces:  Max     0.000001949 RMS     0.000001154

 GradGradGradGradGradGradGradGradGradGradGradGradGradGradGradGradGradGrad
 Berny optimization.
 Using GEDIIS/GDIIS optimizer.
 FormGI is forming the generalized inverse of G from B-inverse, IUseBI=4.
 Internal  Forces:  Max     0.000001949 RMS     0.000001605
 Search for a local minimum.
 Step number   4 out of a maximum of   20
 All quantities printed in internal units (Hartrees-Bohrs-Radians)
 Mixed Optimization -- En-DIIS/RFO-DIIS
 Swapping is turned off.
 Update second derivatives using D2CorX and points    1    2    3    4
 DE= -4.73D-08 DEPred=-4.72D-08 R= 1.00D+00
 Trust test= 1.00D+00 RLast= 7.74D-04 DXMaxT set to 3.00D-01
 The second derivative matrix:
                          R1        R2        A1
           R1           0.50560
           R2          -0.00825   0.50560
           A1           0.03079   0.03079   0.16060
 ITU=  0  1  1  0
     Eigenvalues ---    0.15506   0.50290   0.51385
 En-DIIS/RFO-DIIS IScMMF=        0 using points:     4    3
 RFO step:  Lambda= 0.00000000D+00.
 DidBck=F Rises=F RFO-DIIS coefs:    0.99766    0.00234
 Iteration  1 RMS(Cart)=  0.00000297 RMS(Int)=  0.00000000
 Iteration  2 RMS(Cart)=  0.00000000 RMS(Int)=  0.00000000
 ClnCor:  largest displacement from symmetrization is 2.98D-15 for atom     3.
 Variable       Old X    -DE/DX   Delta X   Delta X   Delta X     New X
                                 (Linear)    (Quad)   (Total)
    R1        1.81669  -0.00000   0.00000  -0.00000  -0.00000   1.81668
    R2        1.81669  -0.00000   0.00000  -0.00000  -0.00000   1.81668
    A1        1.82433  -0.00000  -0.00000   0.00000  -0.00000   1.82433
         Item               Value     Threshold  Converged?
 Maximum Force            0.000002     0.000015     YES
 RMS     Force            0.000002     0.000010     YES
 Maximum Displacement     0.000003     0.000060     YES
 RMS     Displacement     0.000003     0.000040     YES
 Predicted change in Energy=-7.679222D-12
 Optimization completed.
    -- Stationary point found.
                           ----------------------------
                           !   Optimized Parameters   !
                           ! (Angstroms and Degrees)  !
 --------------------------                            --------------------------
 ! Name  Definition              Value          Derivative Info.                !
 --------------------------------------------------------------------------------
 ! R1    R(1,2)                  0.9613         -DE/DX =    0.0                 !
 ! R2    R(1,3)                  0.9613         -DE/DX =    0.0                 !
 ! A1    A(2,1,3)              104.5264         -DE/DX =    0.0                 !
 --------------------------------------------------------------------------------
 GradGradGradGradGradGradGradGradGradGradGradGradGradGradGradGradGradGrad

                          Input orientation:                          
 ---------------------------------------------------------------------
 Center     Atomic      Atomic             Coordinates (Angstroms)
 Number     Number       Type             X           Y           Z
 ---------------------------------------------------------------------
      1          8           0        0.006111   -0.000000    0.004732
      2          1           0        0.005889   -0.000000    0.966081
      3          1           0        0.936784    0.000000   -0.236186
 ---------------------------------------------------------------------
                    Distance matrix (angstroms):
                    1          2          3
     1  O    0.000000
     2  H    0.961350   0.000000
     3  H    0.961350   1.520530   0.000000
 Stoichiometry    H2O
 Framework group  C2V[C2(O),SGV(H2)]
 Deg. of freedom     2
 Full point group                 C2V     NOp   4
 Largest Abelian subgroup         C2V     NOp   4
 Largest concise Abelian subgroup C2      NOp   2
                         Standard orientation:                         
 ---------------------------------------------------------------------
 Center     Atomic      Atomic             Coordinates (Angstroms)
 Number     Number       Type             X           Y           Z
 ---------------------------------------------------------------------
      1          8           0       -0.000000    0.000000    0.117676
      2          1           0       -0.000000    0.760265   -0.470704
      3          1           0       -0.000000   -0.760265   -0.470704
 ---------------------------------------------------------------------
 Rotational constants (GHZ):    815.5157229    433.7826086    283.1641800

 **********************************************************************

            Population analysis using the SCF density.

 **********************************************************************

 Orbital symmetries:
       Occupied  (A1) (A1) (B2) (A1) (B1)
       Virtual   (A1) (B2) (B2) (A1) (A1) (B1) (B2) (A1) (A2) (B1)
                 (A1) (B2) (B2) (A1) (B1) (A2) (B2) (A1) (A1) (A1)
                 (B2) (B1) (A1) (A2) (B2) (B1) (B2) (A1) (A2) (B1)
                 (B2) (A1) (A2) (A1) (B2) (B1) (B2) (A1) (A1) (B2)
                 (B1) (A1) (B1) (A2) (A1) (B1) (B2) (A1) (A2) (A1)
                 (B2) (B2) (A1)
 The electronic state is 1-A1.
 Alpha  occ. eigenvalues --  -19.12114  -1.00831  -0.52765  -0.38547  -0.30953
 Alpha virt. eigenvalues --    0.02405   0.09639   0.36656   0.41395   0.49238
 Alpha virt. eigenvalues --    0.57956   0.61976   0.62354   0.67698   0.77315
 Alpha virt. eigenvalues --    0.92201   1.00634   1.28427   1.30953   1.76267
 Alpha virt. eigenvalues --    1.78702   1.80857   1.88870   1.95837   2.24850
 Alpha virt. eigenvalues --    2.60738   3.05151   3.18878   3.26470   3.34912
 Alpha virt. eigenvalues --    3.37363   3.52301   3.57897   3.64217   3.68681
 Alpha virt. eigenvalues --    3.71075   3.78104   3.99131   4.02372   4.23454
 Alpha virt. eigenvalues --    4.27881   4.50568   4.73764   4.82193   5.08503
 Alpha virt. eigenvalues --    5.59726   6.09706   6.40249   6.40946   6.49651
 Alpha virt. eigenvalues --    6.52928   6.58051   6.65453   6.77078   6.95283
 Alpha virt. eigenvalues --    7.28841   7.74523  12.11333
          Condensed to atoms (all electrons):
               1          2          3
     1  O    7.708374   0.363625   0.363625
     2  H    0.363625   0.467700  -0.049137
     3  H    0.363625  -0.049137   0.467700
 Mulliken charges:
               1
     1  O   -0.435623
     2  H    0.217812
     3  H    0.217812
 Sum of Mulliken charges =  -0.00000
 Mulliken charges with hydrogens summed into heavy atoms:
               1
     1  O   -0.000000
 Electronic spatial extent (au):  <R**2>=             19.3875
 Charge=             -0.0000 electrons
 Dipole moment (field-independent basis, Debye):
    X=             -0.0000    Y=             -0.0000    Z=             -1.9192  Tot=              1.9192
 Quadrupole moment (field-independent basis, Debye-Ang):
   XX=             -7.3546   YY=             -4.3364   ZZ=             -6.1728
   XY=              0.0000   XZ=              0.0000   YZ=              0.0000
 Traceless Quadrupole moment (field-independent basis, Debye-Ang):
   XX=             -1.4000   YY=              1.6182   ZZ=             -0.2182
   XY=              0.0000   XZ=              0.0000   YZ=              0.0000
 Octapole moment (field-independent basis, Debye-Ang**2):
  XXX=              0.0000  YYY=              0.0000  ZZZ=             -1.0694  XYY=             -0.0000
  XXY=              0.0000  XXZ=             -0.2489  XZZ=              0.0000  YZZ=             -0.0000
  YYZ=             -1.2632  XYZ=             -0.0000
 Hexadecapole moment (field-independent basis, Debye-Ang**3):
 XXXX=             -5.7814 YYYY=             -6.2064 ZZZZ=             -6.7356 XXXY=             -0.0000
 XXXZ=             -0.0000 YYYX=             -0.0000 YYYZ=             -0.0000 ZZZX=             -0.0000
 ZZZY=             -0.0000 XXYY=             -2.3021 XXZZ=             -2.1385 YYZZ=             -1.8287
 XXYZ=             -0.0000 YYXZ=              0.0000 ZZXY=             -0.0000
 N-N= 9.155259264272D+00 E-N=-1.991706450911D+02  KE= 7.607252676018D+01
 Symmetry A1   KE= 6.782640149622D+01
 Symmetry A2   KE= 1.572146491153D-20
 Symmetry B1   KE= 4.596595039435D+00
 Symmetry B2   KE= 3.649530224524D+00
 B after Tr=    -0.008084    0.000000   -0.006259
         Rot=    1.000000    0.000000   -0.000000    0.000000 Ang=   0.00 deg.
 Final structure in terms of initial Z-matrix:
 O
 H,1,r1
 H,1,r1,2,a1
      Variables:
 r1=0.9613497
 a1=104.52643402
 1\1\GINC-B450\FOpt\RB3LYP\CC-pVTZ\H2O1\KMOORE\13-Dec-2018\0\\#B3LYP/cc
 -pVTZ Integral(Grid=SuperFineGrid) Opt=(Tight) Freq(Anharm)\\Water\\0,
 1\O,0.006111185,0.,0.004731785\H,0.0058894205,0.,0.9660814631\H,0.9367
 84082,0.,-0.2361856521\\Version=ES64L-G09RevE.01\State=1-A1\HF=-76.459
 8408\RMSD=3.203e-09\RMSF=1.154e-06\Dipole=0.5970385,0.,0.4622766\Quadr
 upole=0.3495084,-1.0408735,0.6913652,0.,-0.6609311,0.\PG=C02V [C2(O1),
 SGV(H2)]\\@


 FROM AN ANONYMOUS WRITER, ON PERSPECTIVE:

 MAN, DESPITE HIS ARTISTIC PRETENSIONS, HIS SOPHISTICATION AND MANY 
 ACCOMPLISHMENTS, OWES THE FACT OF HIS EXISTENCE TO A SIX-INCH LAYER OF 
 TOPSOIL AND THE FACT THAT IT RAINS.
 Job cpu time:       0 days  0 hours  0 minutes 55.9 seconds.
 File lengths (MBytes):  RWF=      5 Int=      0 D2E=      0 Chk=      1 Scr=      1
 Normal termination of Gaussian 09 at Thu Dec 13 09:57:53 2018.
 Link1:  Proceeding to internal job step number  2.
 -------------------------------------------------------------------
 #N Geom=AllCheck Guess=TCheck SCRF=Check GenChk RB3LYP/CC-pVTZ Freq
 -------------------------------------------------------------------
 1/7=10,10=4,29=7,30=1,38=21,40=1,80=1/1,6,3;
 2/12=2,40=1/2;
 3/5=16,6=1,11=2,14=-4,16=1,25=1,30=1,70=2,71=2,74=-5,75=-7,116=1,140=1/1,2,3;
 4/5=101,69=2/1;
 5/5=2,38=6,96=-2,98=1/2;
 8/6=4,10=90,11=11/1;
 11/6=1,8=1,9=11,15=111,16=1/1,2,10;
 10/6=1,60=-2/2;
 6/7=2,8=2,9=2,10=2,28=1/1;
 7/10=1,25=1,71=2/1,2,3,16;
 1/7=10,38=20,80=1/6(3);
 7/8=1,25=2,44=-1,71=2/16,17;
 1/7=10,10=4,30=1,38=20,80=1/3;
 99/8=1000/99;
 3/5=16,6=1,11=2,14=-2,16=1,25=1,30=1,70=5,71=2,74=-5,75=-7,116=1,140=1/1,2,3;
 4/5=5,16=3,69=2/1;
 5/5=2,38=5,96=-2,98=1/2;
 8/6=4,10=90,11=11/1;
 11/6=1,8=1,9=11,15=111,16=1/1,2,10;
 10/6=1,60=-2/2;
 6/7=2,8=2,9=2,10=2,28=1/1;
 7/7=1,10=1,25=1,71=1/1,2,3,16;
 1/7=10,38=20,80=1/6(-8);
 7/8=1,25=2,44=-1,71=1/16,17;
 1/7=10,10=4,30=1,38=20,80=1/3;
 99/8=1000/99;
 Structure from the checkpoint file:  "/scratch/kmoore/Gau-9263.chk"
 -----
 Water
 -----
 Charge =  0 Multiplicity = 1
 Redundant internal coordinates found in file.
 O,0,0.006111185,0.,0.004731785
 H,0,0.0058894205,0.,0.9660814631
 H,0,0.936784082,0.,-0.2361856521
 Recover connectivity data from disk.
 Numerical evaluation of third derivatives.
 Nuclear step= 0.010000 Angstroms, electric field step= 0.000333 atomic units, NStep=1.

 GradGradGradGradGradGradGradGradGradGradGradGradGradGradGradGradGradGrad
 Berny optimization.
 Initialization pass.
                           ----------------------------
                           !    Initial Parameters    !
                           ! (Angstroms and Degrees)  !
 --------------------------                            --------------------------
 ! Name  Definition              Value          Derivative Info.                !
 --------------------------------------------------------------------------------
 ! R1    R(1,2)                  0.9613         calculate D2E/DX2 analytically  !
 ! R2    R(1,3)                  0.9613         calculate D2E/DX2 analytically  !
 ! A1    A(2,1,3)              104.5264         calculate D2E/DX2 analytically  !
 --------------------------------------------------------------------------------
 Trust Radius=3.00D-01 FncErr=1.00D-07 GrdErr=1.00D-07
 Number of steps in this run=      2 maximum allowed number of steps=      2.
 GradGradGradGradGradGradGradGradGradGradGradGradGradGradGradGradGradGrad

                          Input orientation:                          
 ---------------------------------------------------------------------
 Center     Atomic      Atomic             Coordinates (Angstroms)
 Number     Number       Type             X           Y           Z
 ---------------------------------------------------------------------
      1          8           0        0.006111   -0.000000    0.004732
      2          1           0        0.005889   -0.000000    0.966081
      3          1           0        0.936784    0.000000   -0.236186
 ---------------------------------------------------------------------
                    Distance matrix (angstroms):
                    1          2          3
     1  O    0.000000
     2  H    0.961350   0.000000
     3  H    0.961350   1.520530   0.000000
 Stoichiometry    H2O
 Framework group  C2V[C2(O),SGV(H2)]
 Deg. of freedom     2
 Full point group                 C2V     NOp   4
 Largest Abelian subgroup         C2V     NOp   4
 Largest concise Abelian subgroup C2      NOp   2
                         Standard orientation:                         
 ---------------------------------------------------------------------
 Center     Atomic      Atomic             Coordinates (Angstroms)
 Number     Number       Type             X           Y           Z
 ---------------------------------------------------------------------
      1          8           0       -0.000000    0.000000    0.117676
      2          1           0       -0.000000    0.760265   -0.470704
      3          1           0       -0.000000   -0.760265   -0.470704
 ---------------------------------------------------------------------
 Rotational constants (GHZ):    815.5157229    433.7826086    283.1641800
 Standard basis: CC-pVTZ (5D, 7F)
 There are    27 symmetry adapted cartesian basis functions of A1  symmetry.
 There are     7 symmetry adapted cartesian basis functions of A2  symmetry.
 There are    12 symmetry adapted cartesian basis functions of B1  symmetry.
 There are    19 symmetry adapted cartesian basis functions of B2  symmetry.
 There are    23 symmetry adapted basis functions of A1  symmetry.
 There are     7 symmetry adapted basis functions of A2  symmetry.
 There are    11 symmetry adapted basis functions of B1  symmetry.
 There are    17 symmetry adapted basis functions of B2  symmetry.
    58 basis functions,    86 primitive gaussians,    65 cartesian basis functions
     5 alpha electrons        5 beta electrons
       nuclear repulsion energy         9.1552592643 Hartrees.
 NAtoms=    3 NActive=    3 NUniq=    2 SFac= 2.25D+00 NAtFMM=   60 NAOKFM=F Big=F
 Integral buffers will be    131072 words long.
 Raffenetti 2 integral format.
 Two-electron integral symmetry is turned on.
 One-electron integrals computed using PRISM.
 NBasis=    58 RedAO= T EigKep=  3.57D-03  NBF=    23     7    11    17
 NBsUse=    58 1.00D-06 EigRej= -1.00D+00 NBFU=    23     7    11    17
 Initial guess from the checkpoint file:  "/scratch/kmoore/Gau-9263.chk"
 B after Tr=     0.000000    0.000000    0.000000
         Rot=    1.000000    0.000000   -0.000000   -0.000000 Ang=   0.00 deg.
 Initial guess orbital symmetries:
       Occupied  (A1) (A1) (B2) (A1) (B1)
       Virtual   (A1) (B2) (B2) (A1) (A1) (B1) (B2) (A1) (A2) (B1)
                 (A1) (B2) (B2) (A1) (B1) (A2) (B2) (A1) (A1) (A1)
                 (B2) (B1) (A1) (A2) (B2) (B1) (B2) (A1) (A2) (B1)
                 (B2) (A1) (A2) (A1) (B2) (B1) (B2) (A1) (A1) (B2)
                 (B1) (A1) (B1) (A2) (A1) (B1) (B2) (A1) (A2) (A1)
                 (B2) (B2) (A1)
 Keep R1 ints in memory in symmetry-blocked form, NReq=3462605.
 Requested convergence on RMS density matrix=1.00D-08 within 128 cycles.
 Requested convergence on MAX density matrix=1.00D-06.
 Requested convergence on             energy=1.00D-06.
 No special actions if energy rises.
 SCF Done:  E(RB3LYP) =  -76.4598407716     A.U. after    1 cycles
            NFock=  1  Conv=0.33D-09     -V/T= 2.0051
 DoSCS=F DFT=T ScalE2(SS,OS)=  1.000000  1.000000
 Range of M.O.s used for correlation:     1    58
 NBasis=    58 NAE=     5 NBE=     5 NFC=     0 NFV=     0
 NROrb=     58 NOA=     5 NOB=     5 NVA=    53 NVB=    53
 Symmetrizing basis deriv contribution to polar:
 IMax=3 JMax=2 DiffMx= 0.00D+00
 G2DrvN: will do     4 centers at a time, making    1 passes.
 Calling FoFCou, ICntrl=  3107 FMM=F I1Cent=   0 AccDes= 0.00D+00.
 End of G2Drv F.D. properties file   721 does not exist.
 End of G2Drv F.D. properties file   722 does not exist.
 End of G2Drv F.D. properties file   788 does not exist.
          IDoAtm=111
          Differentiating once with respect to electric field.
                with respect to dipole field.
          Differentiating once with respect to nuclear coordinates.
 Keep R1 ints in memory in symmetry-blocked form, NReq=3442237.
          There are     9 degrees of freedom in the 1st order CPHF.  IDoFFX=4 NUNeed=     9.
      9 vectors produced by pass  0 Test12= 2.94D-15 1.11D-08 XBig12= 3.85D+00 1.28D+00.
 AX will form     9 AO Fock derivatives at one time.
      9 vectors produced by pass  1 Test12= 2.94D-15 1.11D-08 XBig12= 5.83D-01 3.70D-01.
      9 vectors produced by pass  2 Test12= 2.94D-15 1.11D-08 XBig12= 6.00D-03 2.99D-02.
      9 vectors produced by pass  3 Test12= 2.94D-15 1.11D-08 XBig12= 1.75D-05 1.18D-03.
      9 vectors produced by pass  4 Test12= 2.94D-15 1.11D-08 XBig12= 7.05D-08 1.20D-04.
      4 vectors produced by pass  5 Test12= 2.94D-15 1.11D-08 XBig12= 1.91D-10 4.39D-06.
      1 vectors produced by pass  6 Test12= 2.94D-15 1.11D-08 XBig12= 1.05D-13 1.02D-07.
 InvSVY:  IOpt=1 It=  1 EMax= 2.22D-16
 Solved reduced A of dimension    50 with     9 vectors.
 Isotropic polarizability for W=    0.000000        7.10 Bohr**3.
 End of Minotr F.D. properties file   721 does not exist.
 End of Minotr F.D. properties file   722 does not exist.
 End of Minotr F.D. properties file   788 does not exist.

 **********************************************************************

            Population analysis using the SCF density.

 **********************************************************************

 Orbital symmetries:
       Occupied  (A1) (A1) (B2) (A1) (B1)
       Virtual   (A1) (B2) (B2) (A1) (A1) (B1) (B2) (A1) (A2) (B1)
                 (A1) (B2) (B2) (A1) (B1) (A2) (B2) (A1) (A1) (A1)
                 (B2) (B1) (A1) (A2) (B2) (B1) (B2) (A1) (A2) (B1)
                 (B2) (A1) (A2) (A1) (B2) (B1) (B2) (A1) (A1) (B2)
                 (B1) (A1) (B1) (A2) (A1) (B1) (B2) (A1) (A2) (A1)
                 (B2) (B2) (A1)
 The electronic state is 1-A1.
 Alpha  occ. eigenvalues --  -19.12114  -1.00831  -0.52765  -0.38547  -0.30953
 Alpha virt. eigenvalues --    0.02405   0.09639   0.36656   0.41395   0.49238
 Alpha virt. eigenvalues --    0.57956   0.61976   0.62354   0.67698   0.77315
 Alpha virt. eigenvalues --    0.92201   1.00634   1.28427   1.30953   1.76267
 Alpha virt. eigenvalues --    1.78702   1.80857   1.88870   1.95837   2.24850
 Alpha virt. eigenvalues --    2.60738   3.05151   3.18878   3.26470   3.34912
 Alpha virt. eigenvalues --    3.37363   3.52301   3.57897   3.64217   3.68681
 Alpha virt. eigenvalues --    3.71075   3.78104   3.99131   4.02372   4.23454
 Alpha virt. eigenvalues --    4.27881   4.50568   4.73764   4.82193   5.08503
 Alpha virt. eigenvalues --    5.59726   6.09706   6.40249   6.40946   6.49651
 Alpha virt. eigenvalues --    6.52928   6.58051   6.65453   6.77078   6.95283
 Alpha virt. eigenvalues --    7.28841   7.74523  12.11333
          Condensed to atoms (all electrons):
               1          2          3
     1  O    7.708374   0.363625   0.363625
     2  H    0.363625   0.467700  -0.049137
     3  H    0.363625  -0.049137   0.467700
 Mulliken charges:
               1
     1  O   -0.435623
     2  H    0.217812
     3  H    0.217812
 Sum of Mulliken charges =   0.00000
 Mulliken charges with hydrogens summed into heavy atoms:
               1
     1  O    0.000000
 APT charges:
               1
     1  O   -0.490669
     2  H    0.245334
     3  H    0.245334
 Sum of APT charges =   0.00000
 APT charges with hydrogens summed into heavy atoms:
               1
     1  O    0.000000
 Electronic spatial extent (au):  <R**2>=             19.3875
 Charge=              0.0000 electrons
 Dipole moment (field-independent basis, Debye):
    X=             -0.0000    Y=             -0.0000    Z=             -1.9192  Tot=              1.9192
 Quadrupole moment (field-independent basis, Debye-Ang):
   XX=             -7.3546   YY=             -4.3364   ZZ=             -6.1728
   XY=              0.0000   XZ=              0.0000   YZ=              0.0000
 Traceless Quadrupole moment (field-independent basis, Debye-Ang):
   XX=             -1.4000   YY=              1.6182   ZZ=             -0.2182
   XY=              0.0000   XZ=              0.0000   YZ=              0.0000
 Octapole moment (field-independent basis, Debye-Ang**2):
  XXX=              0.0000  YYY=             -0.0000  ZZZ=             -1.0694  XYY=             -0.0000
  XXY=              0.0000  XXZ=             -0.2489  XZZ=              0.0000  YZZ=             -0.0000
  YYZ=             -1.2632  XYZ=             -0.0000
 Hexadecapole moment (field-independent basis, Debye-Ang**3):
 XXXX=             -5.7814 YYYY=             -6.2064 ZZZZ=             -6.7356 XXXY=             -0.0000
 XXXZ=             -0.0000 YYYX=             -0.0000 YYYZ=              0.0000 ZZZX=             -0.0000
 ZZZY=             -0.0000 XXYY=             -2.3021 XXZZ=             -2.1385 YYZZ=             -1.8287
 XXYZ=             -0.0000 YYXZ=              0.0000 ZZXY=             -0.0000
 N-N= 9.155259264272D+00 E-N=-1.991706449258D+02  KE= 7.607252667252D+01
 Symmetry A1   KE= 6.782640146614D+01
 Symmetry A2   KE= 2.636434605890D-21
 Symmetry B1   KE= 4.596595006200D+00
 Symmetry B2   KE= 3.649530200184D+00
  Exact polarizability:   5.517  -0.000   8.510   0.000   0.000   7.284
 Approx polarizability:   6.180   0.000  10.846   0.000   0.000   9.203
 Calling FoFJK, ICntrl=    100127 FMM=F ISym2X=1 I1Cent= 0 IOpClX= 0 NMat=1 NMatS=1 NMatT=0.
 Full mass-weighted force constant matrix:
 Low frequencies ---   -2.5922   -0.0008   -0.0004    0.0010    0.7257    2.5827
 Low frequencies --- 1639.5687 3800.5665 3900.8911
 Diagonal vibrational polarizability:
        0.0000000       0.0722978       0.7021655
 Harmonic frequencies (cm**-1), IR intensities (KM/Mole), Raman scattering
 activities (A**4/AMU), depolarization ratios for plane and unpolarized
 incident light, reduced masses (AMU), force constants (mDyne/A),
 and normal coordinates:
                      1                      2                      3
                     A1                     A1                     B2
 Frequencies --   1639.5687              3800.5665              3900.8911
 Red. masses --      1.0832                 1.0447                 1.0819
 Frc consts  --      1.7155                 8.8909                 9.6997
 IR Inten    --     69.5378                 3.2358                40.8808
  Atom  AN      X      Y      Z        X      Y      Z        X      Y      Z
     1   8    -0.00   0.00  -0.07     0.00   0.00   0.05    -0.00  -0.07   0.00
     2   1     0.00   0.43   0.56     0.00   0.59  -0.39     0.00   0.56  -0.43
     3   1     0.00  -0.43   0.56    -0.00  -0.59  -0.39     0.00   0.56   0.43

 -------------------
 - Thermochemistry -
 -------------------
 Temperature   298.150 Kelvin.  Pressure   1.00000 Atm.
 Atom     1 has atomic number  8 and mass  15.99491
 Atom     2 has atomic number  1 and mass   1.00783
 Atom     3 has atomic number  1 and mass   1.00783
 Molecular mass:    18.01056 amu.
 Principal axes and moments of inertia in atomic units:
                           1         2         3
     Eigenvalues --     2.21301   4.16047   6.37348
           X           -0.00000   0.00000   1.00000
           Y            1.00000   0.00000   0.00000
           Z           -0.00000   1.00000  -0.00000
 This molecule is an asymmetric top.
 Rotational symmetry number  2.
 Rotational temperatures (Kelvin)     39.13854    20.81826    13.58972
 Rotational constants (GHZ):         815.51572   433.78261   283.16418
 Zero-point vibrational energy      55871.7 (Joules/Mol)
                                   13.35367 (Kcal/Mol)
 Vibrational temperatures:   2358.97  5468.16  5612.51
          (Kelvin)
 
 Zero-point correction=                           0.021280 (Hartree/Particle)
 Thermal correction to Energy=                    0.024116
 Thermal correction to Enthalpy=                  0.025060
 Thermal correction to Gibbs Free Energy=         0.003638
 Sum of electronic and zero-point Energies=            -76.438560
 Sum of electronic and thermal Energies=               -76.435725
 Sum of electronic and thermal Enthalpies=             -76.434781
 Sum of electronic and thermal Free Energies=          -76.456203
 
                     E (Thermal)             CV                S
                      KCal/Mol        Cal/Mol-Kelvin    Cal/Mol-Kelvin
 Total                   15.133              6.007             45.086
 Electronic               0.000              0.000              0.000
 Translational            0.889              2.981             34.608
 Rotational               0.889              2.981             10.472
 Vibrational             13.355              0.046              0.006
                       Q            Log10(Q)             Ln(Q)
 Total Bot       0.212167D-01         -1.673322         -3.852966
 Total V=0       0.130309D+09          8.114973         18.685415
 Vib (Bot)       0.162879D-09         -9.788135        -22.538015
 Vib (V=0)       0.100037D+01          0.000159          0.000366
 Electronic      0.100000D+01          0.000000          0.000000
 Translational   0.300432D+07          6.477746         14.915562
 Rotational      0.433578D+02          1.637067          3.769487
 ***** Axes restored to original set *****
 -------------------------------------------------------------------
 Center     Atomic                   Forces (Hartrees/Bohr)
 Number     Number              X              Y              Z
 -------------------------------------------------------------------
      1        8           0.000001641    0.000000000    0.000001270
      2        1           0.000000197    0.000000000   -0.000001949
      3        1          -0.000001838   -0.000000000    0.000000679
 -------------------------------------------------------------------
 Cartesian Forces:  Max     0.000001949 RMS     0.000001154
 FormGI is forming the generalized inverse of G from B-inverse, IUseBI=4.
 NDeriv=   3 NFrqRd=  0 NDerD0=   0 MskFDP=       0 MskDFD=       0 MskDF0=       0
 At 1st pt F.D. properties file   721 does not exist.
 At 1st pt F.D. properties file   722 does not exist.
 D2Numr ... symmetry will not be used.
 Standard basis: CC-pVTZ (5D, 7F)
    58 basis functions,    86 primitive gaussians,    65 cartesian basis functions
     5 alpha electrons        5 beta electrons
       nuclear repulsion energy         9.1523744475 Hartrees.
 NAtoms=    3 NActive=    3 NUniq=    3 SFac= 1.00D+00 NAtFMM=   60 NAOKFM=F Big=F
 Integral buffers will be    131072 words long.
 Raffenetti 2 integral format.
 Two-electron integral symmetry is turned off.
 One-electron integrals computed using PRISM.
 NBasis=    58 RedAO= T EigKep=  2.57D-03  NBF=    58
 NBsUse=    58 1.00D-06 EigRej= -1.00D+00 NBFU=    58
 Initial guess from the checkpoint file:  "/scratch/kmoore/Gau-9263.chk"
 B after Tr=    -0.000000    0.000000   -0.001013
         Rot=    1.000000   -0.000000    0.000000    0.000000 Ang=   0.00 deg.
 Keep R1 ints in memory in canonical form, NReq=3457385.
 Requested convergence on RMS density matrix=1.00D-08 within 128 cycles.
 Requested convergence on MAX density matrix=1.00D-06.
 Requested convergence on             energy=1.00D-06.
 No special actions if energy rises.
 SCF Done:  E(RB3LYP) =  -76.4598225358     A.U. after    6 cycles
            NFock=  6  Conv=0.80D-08     -V/T= 2.0051
 DoSCS=F DFT=T ScalE2(SS,OS)=  1.000000  1.000000
 Range of M.O.s used for correlation:     1    58
 NBasis=    58 NAE=     5 NBE=     5 NFC=     0 NFV=     0
 NROrb=     58 NOA=     5 NOB=     5 NVA=    53 NVB=    53
 Symmetrizing basis deriv contribution to polar:
 IMax=3 JMax=2 DiffMx= 0.00D+00
 G2DrvN: will do     4 centers at a time, making    1 passes.
 Calling FoFCou, ICntrl=  3107 FMM=F I1Cent=   0 AccDes= 0.00D+00.
 End of G2Drv F.D. properties file   721 does not exist.
 End of G2Drv F.D. properties file   722 does not exist.
 End of G2Drv F.D. properties file   788 does not exist.
          IDoAtm=111
          Differentiating once with respect to electric field.
                with respect to dipole field.
          Differentiating once with respect to nuclear coordinates.
 Keep R1 ints in memory in canonical form, NReq=3436984.
          There are    12 degrees of freedom in the 1st order CPHF.  IDoFFX=6 NUNeed=     3.
      9 vectors produced by pass  0 Test12= 2.21D-15 8.33D-09 XBig12= 3.84D+00 1.29D+00.
 AX will form     9 AO Fock derivatives at one time.
      9 vectors produced by pass  1 Test12= 2.21D-15 8.33D-09 XBig12= 5.99D-01 3.77D-01.
      9 vectors produced by pass  2 Test12= 2.21D-15 8.33D-09 XBig12= 5.99D-03 3.01D-02.
      9 vectors produced by pass  3 Test12= 2.21D-15 8.33D-09 XBig12= 1.75D-05 1.17D-03.
      9 vectors produced by pass  4 Test12= 2.21D-15 8.33D-09 XBig12= 7.05D-08 1.20D-04.
      4 vectors produced by pass  5 Test12= 2.21D-15 8.33D-09 XBig12= 1.76D-10 4.27D-06.
      1 vectors produced by pass  6 Test12= 2.21D-15 8.33D-09 XBig12= 8.89D-14 9.60D-08.
 InvSVY:  IOpt=1 It=  1 EMax= 4.44D-16
 Solved reduced A of dimension    50 with     9 vectors.
 Isotropic polarizability for W=    0.000000        7.11 Bohr**3.
 End of Minotr F.D. properties file   721 does not exist.
 End of Minotr F.D. properties file   722 does not exist.
 End of Minotr F.D. properties file   788 does not exist.

 **********************************************************************

            Population analysis using the SCF density.

 **********************************************************************

 Alpha  occ. eigenvalues --  -19.12162  -1.00875  -0.52591  -0.38710  -0.30972
 Alpha virt. eigenvalues --    0.02380   0.09634   0.36498   0.41641   0.49213
 Alpha virt. eigenvalues --    0.57937   0.61919   0.62029   0.67864   0.76960
 Alpha virt. eigenvalues --    0.92321   1.00840   1.28212   1.31043   1.76628
 Alpha virt. eigenvalues --    1.78497   1.80879   1.89004   1.95752   2.24383
 Alpha virt. eigenvalues --    2.60934   3.04388   3.18393   3.27104   3.35351
 Alpha virt. eigenvalues --    3.37138   3.52301   3.58064   3.64419   3.68533
 Alpha virt. eigenvalues --    3.70764   3.78047   3.98705   4.01669   4.24346
 Alpha virt. eigenvalues --    4.27663   4.50845   4.74091   4.81990   5.08202
 Alpha virt. eigenvalues --    5.59986   6.10492   6.39968   6.40685   6.49568
 Alpha virt. eigenvalues --    6.52885   6.56134   6.66361   6.77195   6.94891
 Alpha virt. eigenvalues --    7.28964   7.74925  12.10079
          Condensed to atoms (all electrons):
               1          2          3
     1  O    7.708394   0.362849   0.362849
     2  H    0.362849   0.469490  -0.049385
     3  H    0.362849  -0.049385   0.469490
 Mulliken charges:
               1
     1  O   -0.434092
     2  H    0.217046
     3  H    0.217046
 Sum of Mulliken charges =  -0.00000
 Mulliken charges with hydrogens summed into heavy atoms:
               1
     1  O   -0.000000
 APT charges:
               1
     1  O   -0.487210
     2  H    0.243605
     3  H    0.243605
 Sum of APT charges =   0.00000
 APT charges with hydrogens summed into heavy atoms:
               1
     1  O    0.000000
 Electronic spatial extent (au):  <R**2>=             19.3927
 Charge=             -0.0000 electrons
 Dipole moment (field-independent basis, Debye):
    X=              0.0000    Y=              0.0000    Z=             -1.9320  Tot=              1.9320
 Quadrupole moment (field-independent basis, Debye-Ang):
   XX=             -7.3548   YY=             -4.3727   ZZ=             -6.1475
   XY=              0.0000   XZ=             -0.0000   YZ=              0.0000
 Traceless Quadrupole moment (field-independent basis, Debye-Ang):
   XX=             -1.3965   YY=              1.5856   ZZ=             -0.1892
   XY=              0.0000   XZ=             -0.0000   YZ=              0.0000
 Octapole moment (field-independent basis, Debye-Ang**2):
  XXX=              0.0000  YYY=              0.0000  ZZZ=             -1.0737  XYY=             -0.0000
  XXY=              0.0000  XXZ=             -0.2461  XZZ=             -0.0000  YZZ=              0.0000
  YYZ=             -1.2581  XYZ=             -0.0000
 Hexadecapole moment (field-independent basis, Debye-Ang**3):
 XXXX=             -5.7807 YYYY=             -6.2365 ZZZZ=             -6.7479 XXXY=              0.0000
 XXXZ=             -0.0000 YYYX=              0.0000 YYYZ=             -0.0000 ZZZX=             -0.0000
 ZZZY=             -0.0000 XXYY=             -2.2999 XXZZ=             -2.1426 YYZZ=             -1.8236
 XXYZ=             -0.0000 YYXZ=             -0.0000 ZZXY=             -0.0000
 N-N= 9.152374447537D+00 E-N=-1.991627885202D+02  KE= 7.607226084908D+01
  Exact polarizability:   5.518  -0.000   8.495   0.000   0.000   7.323
 Approx polarizability:   6.183  -0.000  10.820  -0.000   0.000   9.284
 Calling FoFJK, ICntrl=    100127 FMM=F ISym2X=0 I1Cent= 0 IOpClX= 0 NMat=1 NMatS=1 NMatT=0.
 -------------------------------------------------------------------
 Center     Atomic                   Forces (Hartrees/Bohr)
 Number     Number              X              Y              Z
 -------------------------------------------------------------------
      1        8          -0.000000000    0.000000000   -0.002124893
      2        1           0.000000000    0.000783554    0.001062446
      3        1           0.000000000   -0.000783554    0.001062446
 -------------------------------------------------------------------
 Cartesian Forces:  Max     0.002124893 RMS     0.000942849
 NDeriv=   3 NFrqRd=  0 NDerD0=   0 MskFDP=       0 MskDFD=       0 MskDF0=       0
 Re-enter D2Numr: Normal Mode=  1 IStep= 1.
 Standard basis: CC-pVTZ (5D, 7F)
    58 basis functions,    86 primitive gaussians,    65 cartesian basis functions
     5 alpha electrons        5 beta electrons
       nuclear repulsion energy         9.1576588679 Hartrees.
 NAtoms=    3 NActive=    3 NUniq=    3 SFac= 1.00D+00 NAtFMM=   60 NAOKFM=F Big=F
 Integral buffers will be    131072 words long.
 Raffenetti 2 integral format.
 Two-electron integral symmetry is turned off.
 One-electron integrals computed using PRISM.
 NBasis=    58 RedAO= T EigKep=  2.54D-03  NBF=    58
 NBsUse=    58 1.00D-06 EigRej= -1.00D+00 NBFU=    58
 Initial guess from the checkpoint file:  "/scratch/kmoore/Gau-9263.chk"
 B after Tr=     0.000000   -0.000000    0.002026
         Rot=    1.000000    0.000000    0.000000   -0.000000 Ang=   0.00 deg.
 Keep R1 ints in memory in canonical form, NReq=3457385.
 Requested convergence on RMS density matrix=1.00D-08 within 128 cycles.
 Requested convergence on MAX density matrix=1.00D-06.
 Requested convergence on             energy=1.00D-06.
 No special actions if energy rises.
 SCF Done:  E(RB3LYP) =  -76.4598226793     A.U. after    7 cycles
            NFock=  7  Conv=0.12D-08     -V/T= 2.0051
 DoSCS=F DFT=T ScalE2(SS,OS)=  1.000000  1.000000
 Range of M.O.s used for correlation:     1    58
 NBasis=    58 NAE=     5 NBE=     5 NFC=     0 NFV=     0
 NROrb=     58 NOA=     5 NOB=     5 NVA=    53 NVB=    53
 Symmetrizing basis deriv contribution to polar:
 IMax=3 JMax=2 DiffMx= 0.00D+00
 G2DrvN: will do     4 centers at a time, making    1 passes.
 Calling FoFCou, ICntrl=  3107 FMM=F I1Cent=   0 AccDes= 0.00D+00.
 End of G2Drv F.D. properties file   721 does not exist.
 End of G2Drv F.D. properties file   722 does not exist.
 End of G2Drv F.D. properties file   788 does not exist.
          IDoAtm=111
          Differentiating once with respect to electric field.
                with respect to dipole field.
          Differentiating once with respect to nuclear coordinates.
 Keep R1 ints in memory in canonical form, NReq=3436984.
          There are    12 degrees of freedom in the 1st order CPHF.  IDoFFX=6 NUNeed=     3.
      9 vectors produced by pass  0 Test12= 2.21D-15 8.33D-09 XBig12= 3.86D+00 1.28D+00.
 AX will form     9 AO Fock derivatives at one time.
      9 vectors produced by pass  1 Test12= 2.21D-15 8.33D-09 XBig12= 5.68D-01 3.64D-01.
      9 vectors produced by pass  2 Test12= 2.21D-15 8.33D-09 XBig12= 6.01D-03 2.97D-02.
      9 vectors produced by pass  3 Test12= 2.21D-15 8.33D-09 XBig12= 1.74D-05 1.19D-03.
      9 vectors produced by pass  4 Test12= 2.21D-15 8.33D-09 XBig12= 6.98D-08 1.19D-04.
      4 vectors produced by pass  5 Test12= 2.21D-15 8.33D-09 XBig12= 2.04D-10 4.41D-06.
      1 vectors produced by pass  6 Test12= 2.21D-15 8.33D-09 XBig12= 1.22D-13 1.06D-07.
 InvSVY:  IOpt=1 It=  1 EMax= 5.55D-16
 Solved reduced A of dimension    50 with     9 vectors.
 Isotropic polarizability for W=    0.000000        7.09 Bohr**3.
 End of Minotr F.D. properties file   721 does not exist.
 End of Minotr F.D. properties file   722 does not exist.
 End of Minotr F.D. properties file   788 does not exist.

 **********************************************************************

            Population analysis using the SCF density.

 **********************************************************************

 Alpha  occ. eigenvalues --  -19.12066  -1.00784  -0.52934  -0.38383  -0.30934
 Alpha virt. eigenvalues --    0.02429   0.09642   0.36815   0.41138   0.49270
 Alpha virt. eigenvalues --    0.57975   0.61922   0.62804   0.67532   0.77671
 Alpha virt. eigenvalues --    0.92085   1.00423   1.28644   1.30856   1.75895
 Alpha virt. eigenvalues --    1.78905   1.80849   1.88673   1.95917   2.25415
 Alpha virt. eigenvalues --    2.60525   3.05903   3.19344   3.25843   3.34429
 Alpha virt. eigenvalues --    3.37582   3.52359   3.57757   3.64006   3.68836
 Alpha virt. eigenvalues --    3.71389   3.78135   3.99591   4.03080   4.22480
 Alpha virt. eigenvalues --    4.28087   4.50386   4.73375   4.82441   5.08821
 Alpha virt. eigenvalues --    5.59404   6.08806   6.40484   6.41200   6.49698
 Alpha virt. eigenvalues --    6.53041   6.59939   6.64578   6.76909   6.95743
 Alpha virt. eigenvalues --    7.28686   7.74077  12.12507
          Condensed to atoms (all electrons):
               1          2          3
     1  O    7.708497   0.364374   0.364374
     2  H    0.364374   0.465892  -0.048888
     3  H    0.364374  -0.048888   0.465892
 Mulliken charges:
               1
     1  O   -0.437245
     2  H    0.218623
     3  H    0.218623
 Sum of Mulliken charges =   0.00000
 Mulliken charges with hydrogens summed into heavy atoms:
               1
     1  O    0.000000
 APT charges:
               1
     1  O   -0.494198
     2  H    0.247099
     3  H    0.247099
 Sum of APT charges =   0.00000
 APT charges with hydrogens summed into heavy atoms:
               1
     1  O    0.000000
 Electronic spatial extent (au):  <R**2>=             19.3831
 Charge=              0.0000 electrons
 Dipole moment (field-independent basis, Debye):
    X=              0.0000    Y=              0.0000    Z=             -1.9063  Tot=              1.9063
 Quadrupole moment (field-independent basis, Debye-Ang):
   XX=             -7.3546   YY=             -4.3001   ZZ=             -6.1981
   XY=              0.0000   XZ=             -0.0000   YZ=              0.0000
 Traceless Quadrupole moment (field-independent basis, Debye-Ang):
   XX=             -1.4037   YY=              1.6508   ZZ=             -0.2472
   XY=              0.0000   XZ=             -0.0000   YZ=              0.0000
 Octapole moment (field-independent basis, Debye-Ang**2):
  XXX=              0.0000  YYY=             -0.0000  ZZZ=             -1.0652  XYY=             -0.0000
  XXY=             -0.0000  XXZ=             -0.2516  XZZ=             -0.0000  YZZ=             -0.0000
  YYZ=             -1.2679  XYZ=             -0.0000
 Hexadecapole moment (field-independent basis, Debye-Ang**3):
 XXXX=             -5.7823 YYYY=             -6.1762 ZZZZ=             -6.7236 XXXY=              0.0000
 XXXZ=             -0.0000 YYYX=              0.0000 YYYZ=              0.0000 ZZZX=             -0.0000
 ZZZY=              0.0000 XXYY=             -2.3045 XXZZ=             -2.1345 YYZZ=             -1.8342
 XXYZ=              0.0000 YYXZ=             -0.0000 ZZXY=             -0.0000
 N-N= 9.157658867940D+00 E-N=-1.991773908231D+02  KE= 7.607257805676D+01
  Exact polarizability:   5.514   0.000   8.525   0.000   0.000   7.246
 Approx polarizability:   6.177  -0.000  10.873  -0.000  -0.000   9.124
 Calling FoFJK, ICntrl=    100127 FMM=F ISym2X=0 I1Cent= 0 IOpClX= 0 NMat=1 NMatS=1 NMatT=0.
 -------------------------------------------------------------------
 Center     Atomic                   Forces (Hartrees/Bohr)
 Number     Number              X              Y              Z
 -------------------------------------------------------------------
      1        8          -0.000000000   -0.000000000    0.002063938
      2        1          -0.000000000   -0.000800609   -0.001031969
      3        1           0.000000000    0.000800609   -0.001031969
 -------------------------------------------------------------------
 Cartesian Forces:  Max     0.002063938 RMS     0.000923262
 NDeriv=   3 NFrqRd=  0 NDerD0=   0 MskFDP=       0 MskDFD=       0 MskDF0=       0
 Re-enter D2Numr: Normal Mode=  1 IStep= 2.
 Standard basis: CC-pVTZ (5D, 7F)
    58 basis functions,    86 primitive gaussians,    65 cartesian basis functions
     5 alpha electrons        5 beta electrons
       nuclear repulsion energy         9.0872628601 Hartrees.
 NAtoms=    3 NActive=    3 NUniq=    3 SFac= 1.00D+00 NAtFMM=   60 NAOKFM=F Big=F
 Integral buffers will be    131072 words long.
 Raffenetti 2 integral format.
 Two-electron integral symmetry is turned off.
 One-electron integrals computed using PRISM.
 NBasis=    58 RedAO= T EigKep=  2.62D-03  NBF=    58
 NBsUse=    58 1.00D-06 EigRej= -1.00D+00 NBFU=    58
 Initial guess from the checkpoint file:  "/scratch/kmoore/Gau-9263.chk"
 B after Tr=    -0.000000   -0.000000   -0.000722
         Rot=    1.000000   -0.000000   -0.000000    0.000000 Ang=   0.00 deg.
 Keep R1 ints in memory in canonical form, NReq=3457385.
 Requested convergence on RMS density matrix=1.00D-08 within 128 cycles.
 Requested convergence on MAX density matrix=1.00D-06.
 Requested convergence on             energy=1.00D-06.
 No special actions if energy rises.
 SCF Done:  E(RB3LYP) =  -76.4597447375     A.U. after    7 cycles
            NFock=  7  Conv=0.12D-08     -V/T= 2.0054
 DoSCS=F DFT=T ScalE2(SS,OS)=  1.000000  1.000000
 Range of M.O.s used for correlation:     1    58
 NBasis=    58 NAE=     5 NBE=     5 NFC=     0 NFV=     0
 NROrb=     58 NOA=     5 NOB=     5 NVA=    53 NVB=    53
 Symmetrizing basis deriv contribution to polar:
 IMax=3 JMax=2 DiffMx= 0.00D+00
 G2DrvN: will do     4 centers at a time, making    1 passes.
 Calling FoFCou, ICntrl=  3107 FMM=F I1Cent=   0 AccDes= 0.00D+00.
 End of G2Drv F.D. properties file   721 does not exist.
 End of G2Drv F.D. properties file   722 does not exist.
 End of G2Drv F.D. properties file   788 does not exist.
          IDoAtm=111
          Differentiating once with respect to electric field.
                with respect to dipole field.
          Differentiating once with respect to nuclear coordinates.
 Keep R1 ints in memory in canonical form, NReq=3436984.
          There are    12 degrees of freedom in the 1st order CPHF.  IDoFFX=6 NUNeed=     3.
[...]
    X=     1.5175    Y=     0.0000    Z=     1.1750
 ------------------------------------------------------------------------
  Temperature:     0K, Unit: Debye
 ------------------------------------------------------------------------
    X=     1.5176    Y=    -0.0000    Z=     1.1750
 ------------------------------------------------------------------------
  Temperature:   298K, Unit: Debye
 ------------------------------------------------------------------------
    X=     1.5176    Y=    -0.0000    Z=     1.1750

     ==================================================
          Nuclear Magnetic Resonance Spectroscopy
     ==================================================

 Nuclear quadrupole tensors
 --------------------------
 ------------------------------------------------------------------------
  Property at reference geometry
 ------------------------------------------------------------------------
              Nuclear Quadrupole in Principal Axis System
       Atom             a.u.   MegaHertz   Gauss  10(-4) cm-1        Axes
              Baa    -1.6458   119.091    42.495    39.725 -0.6122 -0.0000  0.7907
     1 O(17)  Bbb    -0.2232    16.150     5.763     5.387  0.7907  0.0000  0.6122
              Bcc     1.8690  -135.242   -48.258   -45.112 -0.0000  1.0000  0.0000
 
              Baa    -0.4835  -257.986   -92.056   -86.055 -0.0204 -0.0000  0.9998
     2 H(1)   Bbb     0.2122   113.215    40.398    37.765  0.9998  0.0000  0.0204
              Bcc     0.2713   144.771    51.658    48.290 -0.0000  1.0000  0.0000
 
              Baa    -0.4835  -257.986   -92.056   -86.055  0.9628  0.0000 -0.2701
     3 H(1)   Bbb     0.2122   113.215    40.398    37.765  0.2701 -0.0000  0.9628
              Bcc     0.2713   144.771    51.658    48.290 -0.0000  1.0000  0.0000
 
 ------------------------------------------------------------------------
  Temperature:     0K
 ------------------------------------------------------------------------
              Nuclear Quadrupole in Principal Axis System
       Atom             a.u.   MegaHertz   Gauss  10(-4) cm-1        Axes
              Baa    -1.6521   119.546    42.657    39.876 -0.6122  0.0000  0.7907
     1 O(17)  Bbb    -0.2631    19.038     6.793     6.350  0.7907 -0.0000  0.6122
              Bcc     1.9152  -138.584   -49.450   -46.227  0.0000  1.0000 -0.0000
 
              Baa    -0.4701  -250.808   -89.495   -83.661 -0.0209 -0.0000  0.9998
     2 H(1)   Bbb     0.2052   109.497    39.071    36.524  0.9998 -0.0000  0.0209
              Bcc     0.2648   141.311    50.423    47.136  0.0000  1.0000  0.0000
 
              Baa    -0.4701  -250.808   -89.495   -83.661  0.9627 -0.0000 -0.2706
     3 H(1)   Bbb     0.2052   109.497    39.071    36.524  0.2706  0.0000  0.9627
              Bcc     0.2648   141.311    50.423    47.136  0.0000  1.0000 -0.0000
 
 ------------------------------------------------------------------------
  Temperature:   298K
 ------------------------------------------------------------------------
              Nuclear Quadrupole in Principal Axis System
       Atom             a.u.   MegaHertz   Gauss  10(-4) cm-1        Axes
              Baa    -1.6521   119.546    42.657    39.876 -0.6122  0.0000  0.7907
     1 O(17)  Bbb    -0.2631    19.038     6.793     6.350  0.7907 -0.0000  0.6122
              Bcc     1.9152  -138.584   -49.450   -46.227  0.0000  1.0000 -0.0000
 
              Baa    -0.4701  -250.806   -89.494   -83.660 -0.0209 -0.0000  0.9998
     2 H(1)   Bbb     0.2052   109.496    39.071    36.524  0.9998 -0.0000  0.0209
              Bcc     0.2648   141.310    50.423    47.136  0.0000  1.0000  0.0000
 
              Baa    -0.4701  -250.806   -89.494   -83.660  0.9627 -0.0000 -0.2706
     3 H(1)   Bbb     0.2052   109.496    39.071    36.524  0.2706  0.0000  0.9627
              Bcc     0.2648   141.310    50.423    47.136  0.0000  1.0000 -0.0000
 

     ==================================================
                     Resonance Analysis
     ==================================================

 Thresholds
 ----------
 Maximum Difference PT2 vs. Variational (cm-1) :      1.000
 Minimum value for Darling-Dennison term (cm-1):     10.000

 Fermi resonances
 ----------------
  No Fermi resonance found

 Darling-Dennison resonances
 ---------------------------
  No Darling-Dennison resonance found

     ==================================================
                     Anharmonic X Matrix
     ==================================================

 PT2 model: Deperturbed VPT2 (DVPT2)
 Ref.: V. Barone, J. Chem. Phys. 122, 1, 014108 (2005)

 Coriolis contributions to X Matrix (in cm^-1)
 ---------------------------------------------
                1             2             3
      1  0.000000D+00
      2  0.228330D-02  0.000000D+00
      3  0.264393D+02  0.000000D+00  0.000000D+00

 3rd Deriv. contributions to X Matrix (in cm^-1)
 -----------------------------------------------
                1             2             3
      1 -0.961720D+02
      2 -0.354478D+03 -0.895176D+02
      3  0.479263D+02  0.648296D+02 -0.154199D+02

 4th Deriv. contributions to X Matrix (in cm^-1)
 -----------------------------------------------
                1             2             3
      1  0.487368D+02
      2  0.192217D+03  0.476574D+02
      3 -0.910935D+02 -0.771106D+02 -0.296220D+01

 Total Anharmonic X Matrix (in cm^-1)
 ------------------------------------
                1             2             3
      1 -0.474352D+02
      2 -0.162259D+03 -0.418601D+02
      3 -0.167279D+02 -0.122810D+02 -0.183821D+02

     ==================================================
                Anharmonic Zero Point Energy
     ==================================================

 Anharmonic Zero Point Energy
 ----------------------------
 Harmonic       : cm-1 =  4670.51315 ; Kcal/mol =  13.354 ; KJ/mol =  55.872
 Anharm.Pot.    : cm-1 =   -61.44141 ; Kcal/mol =  -0.176 ; KJ/mol =  -0.735
 Watson+Coriolis: cm-1 =   -10.89165 ; Kcal/mol =  -0.031 ; KJ/mol =  -0.130
 X0F (Im. Freq.): cm-1 =     0.00000 ; Kcal/mol =   0.000 ; KJ/mol =   0.000
 Total Anharm   : cm-1 =  4598.18010 ; Kcal/mol =  13.147 ; KJ/mol =  55.006

     ==================================================
          Vibrational Energies at Anharmonic Level
     ==================================================

 Vibrational Energies and Rotational Constants (in cm^-1)
 --------------------------------------------------------
 Mode(Quanta)      E(harm)     E(anharm)     Aa(z)       Ba(x)       Ca(y)
 Equilibrium Geometry                       27.202305   14.470744    9.444398
 Ground State       4670.513    4598.180     27.320467   14.495102    9.213928
 Fundamental Bands (DE w.r.t. Ground State)
   1(1) active      3900.891    3716.528    26.659460   14.256896    9.072396
   2(1) active      3800.567    3629.576    26.823220   14.276469    9.037880
   3(1) active      1639.569    1588.300    28.715044   15.000658    9.070566
 Overtones (DE w.r.t. Ground State)
   1(2)             7801.782    7338.185    25.998452   14.018690    8.930864
   2(2)             7601.133    7175.433    26.325973   14.057836    8.861832
   3(2)             3279.137    3139.836    30.109622   15.506213    8.927204
 Combination Bands (DE w.r.t. Ground State)
   2(1)    1(1)     7701.458    7183.845    26.162213   14.038263    8.896348
   3(1)    1(1)     5540.460    5288.100    28.054037   14.762452    8.929034
   3(1)    2(1)     5440.135    5205.595    28.217798   14.782025    8.894518

     ==================================================
      Thermodynamic properties and Partition Functions
     ==================================================

 ZPE(harm) = 0.55872D+02 kJ/mol        ZPE(anh)= 0.55006D+02 kJ/mol

 Input values of T(K) and P(atm): 298.15   1.00
                    Harmonic value     SPT anharmonic value
 Qvib               0.16288D-09          0.23094D-09
 QZvib              0.10004D+01          0.10005D+01
 Energy             0.63316D+02          0.62452D+02         kJ/mol
 Enthalpy           0.65795D+02          0.64931D+02         kJ/mol
 Entropy            0.18864D+03          0.18865D+03         J/(mol K)
 Sp.Heat(V)         0.25134D+02          0.25173D+02         J/(mol K)
 Sp.Heat(P)         0.33449D+02          0.33487D+02         J/(mol K)

 T =  298.15 K;  P =   1.00 atm
                    Harmonic value     SPT anharmonic value
 Qvib               0.16288D-09          0.23094D-09
 QZvib              0.10004D+01          0.10005D+01
 Energy             0.63316D+02          0.62452D+02         kJ/mol
 Enthalpy           0.65795D+02          0.64931D+02         kJ/mol
 Entropy            0.18864D+03          0.18865D+03         J/(mol K)
 Sp.Heat(V)         0.25134D+02          0.25173D+02         J/(mol K)
 Sp.Heat(P)         0.33449D+02          0.33487D+02         J/(mol K)

 T =  500.00 K;  P =   1.00 atm
                    Harmonic value     SPT anharmonic value
 Qvib               0.14694D-05          0.18121D-05
 QZvib              0.10090D+01          0.10105D+01
 Energy             0.68522D+02          0.67679D+02         kJ/mol
 Enthalpy           0.72679D+02          0.71836D+02         kJ/mol
 Entropy            0.20624D+03          0.20630D+03         J/(mol K)
 Sp.Heat(V)         0.26658D+02          0.26827D+02         J/(mol K)
 Sp.Heat(P)         0.34973D+02          0.35142D+02         J/(mol K)

 T = 1000.00 K;  P =   1.00 atm
                    Harmonic value     SPT anharmonic value
 Qvib               0.13433D-02          0.15061D-02
 QZvib              0.11131D+01          0.11247D+01
 Energy             0.83226D+02          0.82550D+02         kJ/mol
 Enthalpy           0.91541D+02          0.90865D+02         kJ/mol
 Entropy            0.23216D+03          0.23244D+03         J/(mol K)
 Sp.Heat(V)         0.32298D+02          0.32799D+02         J/(mol K)
 Sp.Heat(P)         0.40613D+02          0.41113D+02         J/(mol K)

 T = 1500.00 K;  P =   1.00 atm
                    Harmonic value     SPT anharmonic value
 Qvib               0.15043D-01          0.16495D-01
 QZvib              0.13271D+01          0.13577D+01
 Energy             0.10077D+03          0.10039D+03         kJ/mol
 Enthalpy           0.11325D+03          0.11286D+03         kJ/mol
 Entropy            0.24969D+03          0.25020D+03         J/(mol K)
 Sp.Heat(V)         0.37675D+02          0.38288D+02         J/(mol K)
 Sp.Heat(P)         0.45989D+02          0.46602D+02         J/(mol K)

 T = 2000.00 K;  P =   1.00 atm
                    Harmonic value     SPT anharmonic value
 Qvib               0.57094D-01          0.62293D-01
 QZvib              0.16435D+01          0.17023D+01
 Energy             0.12062D+03          0.12053D+03         kJ/mol
 Enthalpy           0.13725D+03          0.13716D+03         kJ/mol
 Entropy            0.26348D+03          0.26416D+03         J/(mol K)
 Sp.Heat(V)         0.41457D+02          0.41991D+02         J/(mol K)
 Sp.Heat(P)         0.49772D+02          0.50306D+02         J/(mol K)

     ==================================================
               Anharmonic Transition Moments
     ==================================================

 Electric dipole : Fundamental Bands
 ------------------------------------------------------------------------
  Mode(Quanta)             X                 Y                 Z
    1(1)               -0.149737E-01     -0.287119E-13      0.193388E-01
    2(1)                0.471071E-02     -0.351039E-14      0.364744E-02
    3(1)                0.415039E-01     -0.519265E-14      0.321358E-01

 Electric dipole : Overtones
 ------------------------------------------------------------------------
  Mode(Quanta)             X                 Y                 Z
    1(2)               -0.535724E-04      0.279810E-15     -0.414746E-04
    2(2)               -0.143923E-02      0.283817E-15     -0.111437E-02
    3(2)               -0.253284E-02      0.440818E-15     -0.196114E-02

 Electric dipole : Combination Bands
 ------------------------------------------------------------------------
  Mode(Quanta)             X                 Y                 Z
    2(1)    1(1)        0.308009E-02      0.320601E-14     -0.397798E-02
    3(1)    1(1)        0.401436E-02      0.137322E-14     -0.518461E-02
    3(1)    2(1)       -0.827005E-03     -0.262545E-16     -0.640336E-03
 ERROR: Missing derivatives of the polarizability tensor moment.

     ==================================================
              Anharmonic Infrared Spectroscopy
     ==================================================

 Units: Energies (E) in cm^-1
        Integrated intensity (I) in km.mol^-1

 Fundamental Bands
 -----------------
    Mode(Quanta)       E(harm)   E(anharm)       I(harm)        I(anharm)
     1(1)              3900.891   3716.528     40.88080999     36.00314281
     2(1)              3800.567   3629.576      3.23578498      2.08629076
     3(1)              1639.569   1588.300     69.53777260     70.86889111

 Overtones
 ---------
    Mode(Quanta)       E(harm)   E(anharm)                      I(anharm)
     1(2)              7801.782   7338.185                      0.00054547
     2(2)              7601.133   7175.433                      0.38499618
     3(2)              3279.137   3139.836                      0.52175663

 Combination Bands
 -----------------
    Mode(Quanta)       E(harm)   E(anharm)                      I(anharm)
     2(1)     1(1)     7701.458   7183.845                      2.94461169
     3(1)     1(1)     5540.460   5288.100                      3.68194695
     3(1)     2(1)     5440.135   5205.595                      0.09222138


 GradGradGradGradGradGradGradGradGradGradGradGradGradGradGradGradGradGrad
 Berny optimization.
 Internal  Forces:  Max     0.000001950 RMS     0.000001605
 Search for a local minimum.
 Step number   1 out of a maximum of    2
 All quantities printed in internal units (Hartrees-Bohrs-Radians)
 Second derivative matrix not updated -- analytic derivatives used.
 The second derivative matrix:
                          R1        R2        A1
           R1           0.53286
           R2          -0.00511   0.53286
           A1           0.03132   0.03132   0.16056
 ITU=  0
     Eigenvalues ---    0.15529   0.53302   0.53797
 Angle between quadratic step and forces=   1.48 degrees.
 Linear search not attempted -- first point.
 Iteration  1 RMS(Cart)=  0.00000283 RMS(Int)=  0.00000000
 Iteration  2 RMS(Cart)=  0.00000000 RMS(Int)=  0.00000000
 ClnCor:  largest displacement from symmetrization is 1.14D-15 for atom     2.
 Variable       Old X    -DE/DX   Delta X   Delta X   Delta X     New X
                                 (Linear)    (Quad)   (Total)
    R1        1.81669  -0.00000   0.00000  -0.00000  -0.00000   1.81668
    R2        1.81669  -0.00000   0.00000  -0.00000  -0.00000   1.81668
    A1        1.82433  -0.00000   0.00000  -0.00000  -0.00000   1.82433
         Item               Value     Threshold  Converged?
 Maximum Force            0.000002     0.000015     YES
 RMS     Force            0.000002     0.000010     YES
 Maximum Displacement     0.000003     0.000060     YES
 RMS     Displacement     0.000003     0.000040     YES
 Predicted change in Energy=-7.252478D-12
 Optimization completed.
    -- Stationary point found.
                           ----------------------------
                           !   Optimized Parameters   !
                           ! (Angstroms and Degrees)  !
 --------------------------                            --------------------------
 ! Name  Definition              Value          Derivative Info.                !
 --------------------------------------------------------------------------------
 ! R1    R(1,2)                  0.9613         -DE/DX =    0.0                 !
 ! R2    R(1,3)                  0.9613         -DE/DX =    0.0                 !
 ! A1    A(2,1,3)              104.5264         -DE/DX =    0.0                 !
 --------------------------------------------------------------------------------
 GradGradGradGradGradGradGradGradGradGradGradGradGradGradGradGradGradGrad

 1\1\GINC-B450\Freq\RB3LYP\CC-pVTZ\H2O1\KMOORE\13-Dec-2018\0\\#N Geom=A
 llCheck Guess=TCheck SCRF=Check GenChk RB3LYP/CC-pVTZ Freq\\Water\\0,1
 \O,0.006111185,0.,0.004731785\H,0.0058894205,0.,0.9660814631\H,0.93678
 4082,0.,-0.2361856521\\Version=ES64L-G09RevE.01\State=1-A1\HF=-76.4598
 408\RMSD=3.315e-10\RMSF=1.154e-06\ZeroPoint=0.0212804\Thermal=0.024115
 7\Dipole=0.5970385,0.,0.4622766\DipoleDeriv=-0.3812468,0.,0.0587803,0.
 ,-0.6791098,0.,0.0587803,0.,-0.41165,0.2693356,0.,-0.0543285,0.,0.3395
 549,0.,-0.0451645,0.,0.1271127,0.1119111,0.,-0.0044518,0.,0.3395549,0.
 ,-0.0136158,0.,0.2845373\Polar=7.7434803,0.,5.5165079,-0.5931537,0.,8.
 0502802\Quadrupole=0.3495084,-1.0408735,0.6913652,0.,-0.6609311,0.\PG=
 C02V [C2(O1),SGV(H2)]\NImag=0\\0.53374972,0.,-0.00000046,-0.10774855,0
 .,0.58948106,-0.04416045,0.,-0.03406737,0.04865746,0.,0.00000023,0.,0.
 ,-0.00000010,0.02662020,0.,-0.51745494,-0.01735365,0.,0.53285384,-0.48
 958927,0.,0.14181593,-0.00449701,0.,-0.00926655,0.49408628,0.,0.000000
 23,0.,0.,-0.00000012,0.,0.,-0.00000010,0.08112835,0.,-0.07202612,0.051
 42103,0.,-0.01539890,-0.13254938,0.,0.08742502\\-0.00000164,0.,-0.0000
 0127,-0.00000020,0.,0.00000195,0.00000184,0.,-0.00000068\\-0.03084589,
 0.,0.09963711,0.35756851,0.,-0.21579290,0.00383491,0.,-0.17515660,0.02
 331452,0.,-0.04981855,0.,0.,0.01031261,-0.17641817,0.,0.11948449,0.144
 38085,0.,-0.07609050,0.02701098,0.,-0.18241191,-0.02714942,0.,0.032037
 32,0.00013844,0.,-0.04981855,0.,0.,0.03950594,0.,0.,0.01031261,-0.1811
 5034,0.,0.09630841,0.03077575,0.,-0.04339399,0.15037459,0.,-0.05291443
 ,-1.11125059,0.,0.38200260,0.39096297,0.,-1.31347039,-0.16679649,0.,0.
 02080859,0.15662902,0.,-0.19100130,0.,0.,0.20554986,-0.03810961,0.,1.3
 7915699,0.03611071,0.,-1.40352785,1.27804709,0.,-0.41177156,0.01016748
 ,0.,0.00199889,-1.28821457,0.,-0.19100130,0.,0.,-0.01454856,0.,0.,0.20
 554986,-0.35285337,0.,-0.06568659,-0.05691930,0.,0.02437086,0.40977267
 ,0.,0.04131573,1.54280692,0.,0.00000004,-0.39899680,0.,-1.54280690,-0.
 19488733,0.,0.01913692,0.17839837,0.,-0.21679655,0.,0.,0.21679653,0.01
 913690,0.,1.44120884,-0.01487260,0.,-1.42471984,-1.34791959,0.,0.37985
 988,0.01648896,0.,-0.00426430,1.33143063,0.,0.21679651,0.,0.,0.0000000
 1,0.,0.,-0.21679652,0.37985990,0.,0.10159807,-0.00426432,0.,-0.0164890
 0,-0.37559558,0.,-0.08510907,-0.65718882,0.,0.03435966,-0.12959713,0.,
 -0.59015663,-0.04762855,0.,0.23419110,0.08686102,0.,-0.01717985,0.,0.,
 0.01377884,0.09000178,0.,0.67130127,-0.14036222,0.,-0.64331051,0.70481
 737,0.,-0.10459397,-0.03923246,0.,0.05036044,-0.66558490,0.,-0.0171798
 5,0.,0.,0.00340101,0.,0.,0.01377885,0.03959535,0.,-0.08114465,-0.09382
 888,0.,-0.02799076,0.05423353,0.,0.10913541,2.44733508,0.,-1.35177723,
 -0.95419145,0.,2.94087645,0.64139556,0.,-0.04444434,-0.64847500,0.,0.6
 7588861,0.,0.,-0.71327522,0.03395956,0.,-3.33550133,-0.03053957,0.,3.3
 4692958,-3.08873064,0.,0.99863578,0.00707944,0.,-0.00341999,3.08165121
 ,0.,0.67588861,0.,0.,0.03738662,0.,0.,-0.71327522,0.92023189,0.,0.3946
 2488,0.07498390,0.,-0.01142825,-0.99521579,0.,-0.38319662,2.56511828,0
 .,-1.51418974,-0.82106870,0.,2.98980379,0.71310949,0.,-0.11268843,-0.7
 1669259,0.,0.75709400,0.,0.,-0.74968917,-0.09847181,0.,-3.49056881,0.1
 1304358,0.,3.48312088,-3.27822776,0.,0.93375713,0.00358310,0.,-0.01457
 177,3.27464467,0.,0.75709573,0.,0.,-0.00740482,0.,0.,-0.74969091,0.919
 54051,0.,0.50076503,-0.00035515,0.,0.00744793,-0.91918536,0.,-0.508212
 96\\@


 The hours that make us happy make us wise.
                         -- John Masefield
 Job cpu time:       0 days  0 hours  9 minutes 17.5 seconds.
 File lengths (MBytes):  RWF=     44 Int=      0 D2E=      0 Chk=     38 Scr=      1
 Normal termination of Gaussian 09 at Thu Dec 13 09:59:05 2018.
