
 Primary working directories    : /scratch/kmoore
 Secondary working directories  : /scratch/kmoore
 Wavefunction directory         : /scratch/kmoore/
 Main file repository           : /scratch/kmoore/

 SHA1      : b6b3a4772808bb2d43777f23454e145ddfe12dc3
 NAME      : 2015.1.1
 ARCHNAME  : linux/x86_64
 FC        : /soft/mvapich2/2.2b_psm/intel-15.0/bin/mpif90
 BLASLIB   : -L/soft/intel/15.0.1/composer_xe_2015.0.090/mkl/lib/intel64 -lmkl_intel_ilp64 -lmkl_sequential -lmkl_core
 id        : anlgov

 Nodes     nprocs
 b437         3
 Number of processes for MPI-2 version of Molpro:   nprocs(total)=    4   nprocs(compute)=    3   nprocs(helper)=    1

 Using customized tuning parameters: mindgm=1; mindgv=20; mindgc=4; mindgr=1; noblas=0; minvec=7
 default implementation of scratch files=sf  

 memory,1000,m
 gthresh,energy=1.0d-10,orbital=1.0d-10
 
 angstrom
 Geometry = {
 O
 H 1 r1
 H 1 r1 2 a1
 }
 
 r1 =  0.98
 a1 = 104.5
 
 basis=cc-pVDZ
 
 {rhf}
 {ccsd(t)}
 {optg}
 {freq}
 

 Variables initialized (889), CPU time= 0.00 sec
 Commands  initialized (702), CPU time= 0.01 sec, 572 directives.
 Default parameters read. Elapsed time= 0.05 sec

 Checking input...
 Passed
1


                                         ***  PROGRAM SYSTEM MOLPRO  ***
                                       Copyright, TTI GmbH Stuttgart, 2015
                                    Version 2015.1 linked Jan  8 2016 07:59:11


 **********************************************************************************************************************************
 LABEL *                                                                                 
  64 bit mpp version                                                                     DATE: 23-Oct-18          TIME: 15:17:05  
 **********************************************************************************************************************************

 SHA1:             b6b3a4772808bb2d43777f23454e145ddfe12dc3
 **********************************************************************************************************************************

 THRESHOLDS:

 ZERO    =  1.00D-12  ONEINT  =  1.00D-12  TWOINT  =  1.00D-11  PREFAC  =  1.00D-14  LOCALI  =  1.00D-09  EORDER  =  1.00D-04
 ENERGY  =  1.00D-10  ETEST   =  0.00D+00  EDENS   =  0.00D+00  THRDEDEF=  1.00D-06  GRADIENT=  1.00D-02  STEP    =  1.00D-03
 ORBITAL =  1.00D-10  CIVEC   =  1.00D-05  COEFF   =  1.00D-04  PRINTCI =  5.00D-02  PUNCHCI =  9.90D+01  OPTGRAD =  3.00D-04
 OPTENERG=  1.00D-06  OPTSTEP =  3.00D-04  THRGRAD =  1.00D-10  COMPRESS=  1.00D-11  VARMIN  =  1.00D-07  VARMAX  =  1.00D-03
 THRDOUB =  0.00D+00  THRDIV  =  1.00D-05  THRRED  =  1.00D-07  THRPSP  =  1.00D+00  THRDC   =  1.00D-10  THRCS   =  1.00D-10
 THRNRM  =  1.00D-08  THREQ   =  0.00D+00  THRDE   =  1.00D+00  THRREF  =  1.00D-05  SPARFAC =  1.00D+00  THRDLP  =  1.00D-07
 THRDIA  =  1.00D-10  THRDLS  =  1.00D-07  THRGPS  =  0.00D+00  THRKEX  =  0.00D+00  THRDIS  =  2.00D-01  THRVAR  =  1.00D-10
 THRLOC  =  1.00D-06  THRGAP  =  1.00D-06  THRLOCT = -1.00D+00  THRGAPT = -1.00D+00  THRORB  =  1.00D-06  THRMLTP =  0.00D+00
 THRCPQCI=  1.00D-10  KEXTA   =  0.00D+00  THRCOARS=  0.00D+00  SYMTOL  =  1.00D-06  GRADTOL =  1.00D-06  THROVL  =  1.00D-08
 THRORTH =  1.00D-08  GRID    =  1.00D-06  GRIDMAX =  1.00D-03  DTMAX   =  0.00D+00  THROCCDE=  1.00D-01  THROCCDE=  1.00D-01


 ZUNIT=ANG
 
 SETTING R1             =         0.98000000                                  
 SETTING A1             =       104.50000000                                  

 Variable memory set to 1000000000 words,  buffer space   230000 words

 SETTING BASIS          =    CC-PVDZ


 Recomputing integrals since basis changed


 Using spherical harmonics

 Library entry O      S cc-pVDZ              selected for orbital group  1
 Library entry O      P cc-pVDZ              selected for orbital group  1
 Library entry O      D cc-pVDZ              selected for orbital group  1
 Library entry H      S cc-pVDZ              selected for orbital group  2
 Library entry H      P cc-pVDZ              selected for orbital group  2

1PROGRAM * SEWARD (Integral evaluation for generally contracted gaussian basis sets)     Author: Roland Lindh, 1990

 Geometry written to block  1 of record 700

 Orientation using atomic masses  
 Molecule type: Asymmetric top,     Order of principal axis = 2
 Symmetry elements: X,Y
 Rotational constants:     272.4632506    784.1994164    417.5306268 GHz  (calculated with average atomic masses)

 Point group  C2v 



 ATOMIC COORDINATES

 NR  ATOM    CHARGE       X              Y              Z

   1  O       8.00    0.000000000    0.000000000   -0.126868611
   2  H       1.00    0.000000000    1.464303009    1.006915917
   3  H       1.00    0.000000000   -1.464303009    1.006915917

 Bond lengths in Bohr (Angstrom)

 1-2  1.851931602  1-3  1.851931602
     ( 0.980000000)     ( 0.980000000)

 Bond angles

  2-1-3  104.50000000

 NUCLEAR CHARGE:                   10
 NUMBER OF PRIMITIVE AOS:          41
 NUMBER OF SYMMETRY AOS:           40
 NUMBER OF CONTRACTIONS:           24   (  11A1  +   4B1  +   7B2  +   2A2  )
 NUMBER OF CORE ORBITALS:           1   (   1A1  +   0B1  +   0B2  +   0A2  )
 NUMBER OF VALENCE ORBITALS:        6   (   3A1  +   1B1  +   2B2  +   0A2  )


 NUCLEAR REPULSION ENERGY    8.98108732

 Eigenvalues of metric

         1 0.181E-01 0.536E-01 0.163E+00 0.224E+00 0.532E+00 0.986E+00 0.101E+01 0.128E+01
         2 0.183E+00 0.544E+00 0.110E+01 0.222E+01
         3 0.474E-01 0.100E+00 0.177E+00 0.687E+00 0.102E+01 0.118E+01 0.255E+01
         4 0.638E+00 0.132E+01


 Contracted 2-electron integrals neglected if value below      1.0D-14
 AO integral compression algorithm  1   Integral accuracy      1.0D-14

     0.786 MB (compressed) written to integral file (100.0%)

     Node minimum: 0.262 MB, node maximum: 0.262 MB


 NUMBER OF SORTED TWO-ELECTRON INTEGRALS:       4533.     BUFFER LENGTH:  32768
 NUMBER OF SEGMENTS:   1  SEGMENT LENGTH:       4533      RECORD LENGTH: 524288

 Memory used in sort:       0.56 MW

 SORT1 READ       19290. AND WROTE        4208. INTEGRALS IN      1 RECORDS. CPU TIME:     0.00 SEC, REAL TIME:     0.01 SEC
 SORT2 READ       12665. AND WROTE       13826. INTEGRALS IN      3 RECORDS. CPU TIME:     0.00 SEC, REAL TIME:     0.00 SEC

 Node minimum:        4366.  Node maximum:        4927. integrals

 OPERATOR DM      FOR CENTER  0  COORDINATES:    0.000000    0.000000    0.000000


 **********************************************************************************************************************************
 DATASETS  * FILE   NREC   LENGTH (MB)   RECORD NAMES
              1      18       19.08       500      610      700      900      950      970     1000      129      960     1100   
                                          VAR    BASINP    GEOM    SYMINP    ZMAT    AOBASIS   BASIS     P2S    ABASIS      S 
                                         1400     1410     1200     1210     1080     1600     1650     1700   
                                           T        V       H0       H01     AOSYM     SMH    MOLCAS    OPER   

 PROGRAMS   *        TOTAL       INT
 CPU TIMES  *         0.29      0.19
 REAL TIME  *         0.75 SEC
 DISK USED  *        12.72 MB      
 GA USED    *         0.00 MB       (max)       0.00 MB       (current)
 **********************************************************************************************************************************

1PROGRAM * RHF-SCF (CLOSED SHELL)       Authors: W. Meyer, H.-J. Werner


 NUMBER OF ELECTRONS:       5+    5-
 CONVERGENCE THRESHOLDS:    1.00E-10 (Density)    1.00E-11 (Energy)
 MAX. NUMBER OF ITERATIONS:       60
 INTERPOLATION TYPE:            DIIS
 INTERPOLATION STEPS:              2 (START)      1 (STEP)
 LEVEL SHIFTS:                  0.00 (CLOSED)  0.00 (OPEN) 



 Orbital guess generated from atomic densities. Full valence occupancy:    4   1   2   0

 Molecular orbital dump at record        2100.2

 Initial occupancy:   3   1   1   0

 ITERATION    DDIFF          GRAD             ENERGY        2-EL.EN.            DIPOLE MOMENTS         DIIS   ORB.
    1      0.000D+00      0.000D+00       -75.98568622     77.581727    0.00000    0.00000    1.17284    0    start
    2      0.000D+00      0.373D-01       -76.01555589     74.256344    0.00000    0.00000    0.75849    1    diag
    3      0.771D-01      0.200D-01       -76.02447940     75.614366    0.00000    0.00000    0.83678    2    diag
    4      0.259D-01      0.225D-02       -76.02471407     75.514658    0.00000    0.00000    0.82264    3    diag
    5      0.484D-02      0.629D-03       -76.02473439     75.527197    0.00000    0.00000    0.81835    4    diag
    6      0.158D-02      0.985D-04       -76.02473504     75.527095    0.00000    0.00000    0.81760    5    diag
    7      0.254D-03      0.139D-04       -76.02473505     75.527037    0.00000    0.00000    0.81747    6    diag
    8      0.435D-04      0.117D-05       -76.02473505     75.527030    0.00000    0.00000    0.81746    7    diag
    9      0.314D-05      0.163D-06       -76.02473505     75.527028    0.00000    0.00000    0.81746    8    diag
   10      0.411D-06      0.415D-07       -76.02473505     75.527028    0.00000    0.00000    0.81746    9    orth
   11      0.126D-06      0.575D-08       -76.02473505     75.527028    0.00000    0.00000    0.81746    9    diag
   12      0.178D-07      0.110D-08       -76.02473505     75.527028    0.00000    0.00000    0.81746    9    diag
   13      0.336D-08      0.160D-09       -76.02473505     75.527028    0.00000    0.00000    0.81746    9    diag
   14      0.351D-09      0.173D-10       -76.02473505     75.527028    0.00000    0.00000    0.81746    9    diag
   15      0.415D-10      0.292D-11       -76.02473505     75.527028    0.00000    0.00000    0.81746    0    orth

 Final occupancy:   3   1   1   0

 !RHF STATE 1.1 Energy                -76.024735051880
 Nuclear energy                         8.98108732
 One-electron energy                 -122.76933647
 Two-electron energy                   37.76351411
 Virial quotient                       -1.00158482
 !RHF STATE 1.1 Dipole moment           0.00000000     0.00000000     0.81746186
 Dipole moment /Debye                   0.00000000     0.00000000     2.07764471

 Orbital energies:

         1.1          2.1          3.1          4.1          5.1
    -20.554409    -1.325474    -0.562396     0.181636     0.833483

         1.2          2.2          3.2
     -0.491598     1.199774     1.670688

         1.3          2.3          3.3
     -0.687276     0.252781     0.773404

         1.4          2.4
      1.470623     3.316753

 HOMO      1.2    -0.491598 =     -13.3771eV
 LUMO      4.1     0.181636 =       4.9426eV
 LUMO-HOMO         0.673235 =      18.3196eV


 **********************************************************************************************************************************
 DATASETS  * FILE   NREC   LENGTH (MB)   RECORD NAMES
              1      18       19.08       500      610      700      900      950      970     1000      129      960     1100   
                                          VAR    BASINP    GEOM    SYMINP    ZMAT    AOBASIS   BASIS     P2S    ABASIS      S 
                                         1400     1410     1200     1210     1080     1600     1650     1700   
                                           T        V       H0       H01     AOSYM     SMH    MOLCAS    OPER   

              2       4        0.38       700     1000      520     2100   
                                         GEOM     BASIS   MCVARS     RHF  

 PROGRAMS   *        TOTAL       RHF       INT
 CPU TIMES  *         0.30      0.01      0.19
 REAL TIME  *         0.76 SEC
 DISK USED  *        71.27 MB      
 SF USED    *         0.00 MB      
 GA USED    *         0.00 MB       (max)       0.00 MB       (current)
 **********************************************************************************************************************************


1PROGRAM * CCSD (Closed-shell coupled cluster)     Authors: C. Hampel, H.-J. Werner, 1991, M. Deegan, P.J. Knowles, 1992


 Convergence thresholds:  THRVAR = 1.00D-14  THRDEN = 1.00D-10

 CCSD(T)     terms to be evaluated (factor= 1.000)


 Number of core orbitals:           1 (   1   0   0   0 )
 Number of closed-shell orbitals:   4 (   2   1   1   0 )
 Number of external orbitals:      19 (   8   3   6   2 )

 Molecular orbitals read from record     2100.2  Type=RHF/CANONICAL (state 1.1)

 Number of N-1 electron functions:               4
 Number of N-2 electron functions:              10
 Number of singly external CSFs:                25
 Number of doubly external CSFs:               805
 Total number of CSFs:                         831

 Length of J-op  integral file:               0.00 MB
 Length of K-op  integral file:               0.01 MB
 Length of 3-ext integral record:             0.00 MB

 Memory could be reduced to 0.30 Mwords without degradation in triples

 Integral transformation finished. Total CPU:   0.00 sec, npass=  1  Memory used:   0.07 MW

 Reference energy:                    -76.02473505

 MP2 singlet pair energy:              -0.12678906
 MP2 triplet pair energy:              -0.07646036
 MP2 correlation energy:               -0.20324942
 MP2 total energy:                    -76.22798447

 SCS-MP2 correlation energy:           -0.19972220   (PS=  1.200000  PT=  0.333333)
 SCS-MP2 total energy:                -76.22445725

 ITER.      SQ.NORM     CORR.ENERGY   TOTAL ENERGY   ENERGY CHANGE        DEN1      VAR(S)    VAR(P)  DIIS     TIME  TIME/IT
   1      1.05405582    -0.21175722   -76.23649227    -0.00850780    -0.00477461  0.30D-03  0.72D-03  1  1     0.00     0.00
   2      1.05744310    -0.21274810   -76.23748315    -0.00099088    -0.00403495  0.60D-05  0.64D-04  2  2     0.01     0.00
   3      1.05832762    -0.21283083   -76.23756588    -0.00008273    -0.00064789  0.23D-05  0.26D-05  3  3     0.01     0.00
   4      1.05853367    -0.21283463   -76.23756968    -0.00000380    -0.00010813  0.17D-06  0.16D-06  4  4     0.01     0.00
   5      1.05857471    -0.21283304   -76.23756809     0.00000159    -0.00001783  0.45D-07  0.98D-08  5  5     0.01     0.00
   6      1.05858116    -0.21283297   -76.23756802     0.00000007     0.00000033  0.54D-08  0.11D-08  6  6     0.01     0.00
   7      1.05858452    -0.21283290   -76.23756795     0.00000007    -0.00000033  0.19D-09  0.92D-10  6  1     0.01     0.00
   8      1.05858495    -0.21283285   -76.23756790     0.00000005     0.00000009  0.54D-11  0.66D-11  6  2     0.01     0.00
   9      1.05858508    -0.21283283   -76.23756788     0.00000001    -0.00000006  0.12D-12  0.41D-12  6  3     0.02     0.00
  10      1.05858512    -0.21283283   -76.23756788     0.00000000    -0.00000003  0.29D-14  0.12D-13  6  4     0.02     0.00
  11      1.05858513    -0.21283283   -76.23756788     0.00000000    -0.00000000  0.29D-15  0.49D-15  6  6     0.02     0.00
  12      1.05858513    -0.21283283   -76.23756788     0.00000000    -0.00000000  0.64D-17  0.19D-16  6  5     0.02     0.00
  13      1.05858513    -0.21283283   -76.23756788     0.00000000    -0.00000000  0.14D-17  0.14D-17  6  1     0.02     0.00

 Norm of t1 vector:      0.02503316      S-energy:    -0.00000000      T1 diagnostic:  0.00625829
                                                                       D1 diagnostic:  0.01208916

 Doubles amplitudes (print threshold =  0.500E-01):

         I         J         SYM. A    SYM. B    A         B      T(IJ, AB)

         3         3         2         2         1         1     -0.05147998


 Total CPU time for triples:      0.00 sec


 RESULTS
 =======

  Reference energy                    -76.024735051880
  CCSD singlet pair energy             -0.144878289280
  CCSD triplet pair energy             -0.067954541113
  CCSD correlation energy              -0.212832830408

  Triples (T) contribution             -0.003142345481
  Total correlation energy             -0.215975175889

  CCSD total energy                   -76.237567882288
  CCSD[T] energy                      -76.240801685898
  CCSD-T energy                       -76.240651972786
 !CCSD(T) total energy                -76.240710227769

 Timing summary (sec):

 STEP                 CPU(USER)    SYS     CPU(TOT)    WALL
 CCSD iterations         0.02      0.02      0.04      0.03

 Program statistics:

 Available memory in ccsd:               999999836
 Min. memory needed in ccsd:                  5661
 Max. memory used in ccsd:                    6126
 Max. memory used in cckext:                 38485 (13 integral passes)



 **********************************************************************************************************************************
 DATASETS  * FILE   NREC   LENGTH (MB)   RECORD NAMES
              1      19       19.14       500      610      700      900      950      970     1000      129      960     1100   
                                          VAR    BASINP    GEOM    SYMINP    ZMAT    AOBASIS   BASIS     P2S    ABASIS      S 
                                         1400     1410     1200     1210     1080     1600     1650     1700     1380   
                                           T        V       H0       H01     AOSYM     SMH    MOLCAS    OPER     JKOP   

              2       4        0.38       700     1000      520     2100   
                                         GEOM     BASIS   MCVARS     RHF  

 PROGRAMS   *        TOTAL   CCSD(T)       RHF       INT
 CPU TIMES  *         0.35      0.04      0.01      0.19
 REAL TIME  *         0.82 SEC
 DISK USED  *        71.43 MB      
 SF USED    *         0.16 MB      
 GA USED    *         0.00 MB       (max)       0.00 MB       (current)
 **********************************************************************************************************************************


 PROGRAM * OPT (Geometry optimization)     Authors: F. Eckert and H.-J. Werner


 BFGS update of hessian

 Running default procedure: RHF-SCF000  CCSD(T)

 Geometry optimization using default procedure for command CCSD(T)

 Geometry written to block  1 of record 700
 

 Number of displacements for numerical gradient:      4

 Starting numerical gradient for CCSD(T)
 Starting task   1 Incrementing variable R1       by   0.00529 ANG to    0.98529 ANG. CPU=    0.00 sec, Elapsed=    0.00 sec


 Recomputing integrals since geometry changed

1PROGRAM * SEWARD (Integral evaluation for generally contracted gaussian basis sets)     Author: Roland Lindh, 1990

 Geometry written to block  1 of record 700

 Orientation using atomic masses  
 Molecule type: Asymmetric top,     Order of principal axis = 2
 Symmetry elements: X,Y
 Rotational constants:     269.5444368    775.7985327    413.0577515 GHz  (calculated with average atomic masses)

 Point group  C2v 



 ATOMIC COORDINATES

 NR  ATOM    CHARGE       X              Y              Z

   1  O       8.00    0.000000000    0.000000000   -0.127553672
   2  H       1.00    0.000000000    1.472209905    1.012353029
   3  H       1.00    0.000000000   -1.472209905    1.012353029

 Bond lengths in Bohr (Angstrom)

 1-2  1.861931602  1-3  1.861931602
     ( 0.985291772)     ( 0.985291772)

 Bond angles

  2-1-3  104.50000000

 NUCLEAR CHARGE:                   10
 NUMBER OF PRIMITIVE AOS:          41
 NUMBER OF SYMMETRY AOS:           40
 NUMBER OF CONTRACTIONS:           24   (  11A1  +   4B1  +   7B2  +   2A2  )
 NUMBER OF CORE ORBITALS:           1   (   1A1  +   0B1  +   0B2  +   0A2  )
 NUMBER OF VALENCE ORBITALS:        6   (   3A1  +   1B1  +   2B2  +   0A2  )


 NUCLEAR REPULSION ENERGY    8.93285199

 Eigenvalues of metric

         1 0.182E-01 0.544E-01 0.164E+00 0.224E+00 0.537E+00 0.986E+00 0.101E+01 0.128E+01
         2 0.183E+00 0.549E+00 0.110E+01 0.221E+01
         3 0.481E-01 0.100E+00 0.178E+00 0.692E+00 0.102E+01 0.119E+01 0.255E+01
         4 0.642E+00 0.131E+01


 Contracted 2-electron integrals neglected if value below      1.0D-14
 AO integral compression algorithm  1   Integral accuracy      1.0D-14

     0.786 MB (compressed) written to integral file (100.0%)

     Node minimum: 0.262 MB, node maximum: 0.262 MB


 NUMBER OF SORTED TWO-ELECTRON INTEGRALS:       4533.     BUFFER LENGTH:  32768
 NUMBER OF SEGMENTS:   1  SEGMENT LENGTH:       4533      RECORD LENGTH: 524288

 Memory used in sort:       0.56 MW

 SORT1 READ       19290. AND WROTE        4208. INTEGRALS IN      1 RECORDS. CPU TIME:     0.00 SEC, REAL TIME:     0.01 SEC
 SORT2 READ       12665. AND WROTE       13826. INTEGRALS IN      3 RECORDS. CPU TIME:     0.00 SEC, REAL TIME:     0.00 SEC

 Node minimum:        4366.  Node maximum:        4927. integrals

 OPERATOR DM      FOR CENTER  0  COORDINATES:    0.000000    0.000000    0.000000
1PROGRAM * RHF-SCF (CLOSED SHELL)       Authors: W. Meyer, H.-J. Werner


 NUMBER OF ELECTRONS:       5+    5-
 CONVERGENCE THRESHOLDS:    1.00E-10 (Density)    1.00E-11 (Energy)
 MAX. NUMBER OF ITERATIONS:       60
 INTERPOLATION TYPE:            DIIS
 INTERPOLATION STEPS:              2 (START)      1 (STEP)
 LEVEL SHIFTS:                  0.00 (CLOSED)  0.00 (OPEN) 

 Number of closed-shell orbitals:    5 (   3   1   1   0 )


 Molecular orbitals read from record     2100.2  Type=RHF/CANONICAL (state 1.1)

 Molecular orbital dump at record        2100.1

 ITERATION    DDIFF          GRAD             ENERGY        2-EL.EN.            DIPOLE MOMENTS         DIIS   ORB.
    1      0.000D+00      0.000D+00       -76.02396711     75.472999    0.00000    0.00000    0.82030    0    start
    2      0.000D+00      0.708D-03       -76.02398401     75.444260    0.00000    0.00000    0.82035    1    diag
    3      0.211D-02      0.197D-03       -76.02398519     75.457271    0.00000    0.00000    0.82023    2    diag
    4      0.462D-03      0.814D-04       -76.02398543     75.451046    0.00000    0.00000    0.81955    3    diag
    5      0.132D-03      0.199D-04       -76.02398546     75.451623    0.00000    0.00000    0.81942    4    diag
    6      0.448D-04      0.494D-05       -76.02398546     75.451598    0.00000    0.00000    0.81935    5    diag
    7      0.155D-04      0.968D-06       -76.02398546     75.451601    0.00000    0.00000    0.81934    6    diag
    8      0.295D-05      0.126D-06       -76.02398546     75.451600    0.00000    0.00000    0.81934    7    orth
    9      0.339D-06      0.198D-07       -76.02398546     75.451600    0.00000    0.00000    0.81934    8    diag
   10      0.567D-07      0.179D-08       -76.02398546     75.451600    0.00000    0.00000    0.81934    9    diag
   11      0.506D-08      0.260D-09       -76.02398546     75.451600    0.00000    0.00000    0.81934    9    diag
   12      0.649D-09      0.309D-10       -76.02398546     75.451600    0.00000    0.00000    0.81934    9    diag
   13      0.779D-10      0.195D-11       -76.02398546     75.451600    0.00000    0.00000    0.81934    0    orth

 Final occupancy:   3   1   1   0

 !RHF STATE 1.1 Energy                -76.023985461055
 Nuclear energy                         8.93285199
 One-electron energy                 -122.68263741
 Two-electron energy                   37.72579996
 Virial quotient                       -1.00182040
 !RHF STATE 1.1 Dipole moment           0.00000000     0.00000000     0.81933926
 Dipole moment /Debye                   0.00000000     0.00000000     2.08241627

 Orbital energies:

         1.1          2.1          3.1          4.1          5.1
    -20.555324    -1.322964    -0.561423     0.180693     0.828796

         1.2          2.2          3.2
     -0.491263     1.199520     1.669905

         1.3          2.3          3.3
     -0.684545     0.251932     0.769855

         1.4          2.4
      1.469380     3.311698

 HOMO      1.2    -0.491263 =     -13.3679eV
 LUMO      4.1     0.180693 =       4.9169eV
 LUMO-HOMO         0.671956 =      18.2848eV


 **********************************************************************************************************************************
 DATASETS  * FILE   NREC   LENGTH (MB)   RECORD NAMES
              1      19       19.20       500      610      700      900      950      970     1000      129      960     1100   
                                          VAR    BASINP    GEOM    SYMINP    ZMAT    AOBASIS   BASIS     P2S    ABASIS      S 
                                         1400     1410     1200     1210     1080     1600     1650     1700     2100   
                                           T        V       H0       H01     AOSYM     SMH    MOLCAS    OPER      RHF  

              2       5        0.39       700     1000      520     2100     5600   
                                         GEOM     BASIS   MCVARS     RHF     GINFO   

 PROGRAMS   *        TOTAL       RHF   CCSD(T)       RHF       INT
 CPU TIMES  *         0.49      0.13      0.04      0.01      0.19
 REAL TIME  *         0.99 SEC
 DISK USED  *        71.68 MB      
 SF USED    *         0.16 MB      
 GA USED    *         0.00 MB       (max)       0.00 MB       (current)
 **********************************************************************************************************************************


1PROGRAM * CCSD (Closed-shell coupled cluster)     Authors: C. Hampel, H.-J. Werner, 1991, M. Deegan, P.J. Knowles, 1992


 Convergence thresholds:  THRVAR = 1.00D-14  THRDEN = 1.00D-10

 CCSD(T)     terms to be evaluated (factor= 1.000)


 Number of core orbitals:           1 (   1   0   0   0 )
 Number of closed-shell orbitals:   4 (   2   1   1   0 )
 Number of external orbitals:      19 (   8   3   6   2 )

 Molecular orbitals read from record     2100.1  Type=RHF/CANONICAL (state 1.1)

 Number of N-1 electron functions:               4
 Number of N-2 electron functions:              10
 Number of singly external CSFs:                25
 Number of doubly external CSFs:               805
 Total number of CSFs:                         831

 Length of J-op  integral file:               0.00 MB
 Length of K-op  integral file:               0.01 MB
 Length of 3-ext integral record:             0.00 MB

 Memory could be reduced to 0.31 Mwords without degradation in triples

 Integral transformation finished. Total CPU:   0.01 sec, npass=  1  Memory used:   0.07 MW

 Reference energy:                    -76.02398546

 MP2 singlet pair energy:              -0.12707783
 MP2 triplet pair energy:              -0.07655185
 MP2 correlation energy:               -0.20362969
 MP2 total energy:                    -76.22761515

 SCS-MP2 correlation energy:           -0.20012566   (PS=  1.200000  PT=  0.333333)
 SCS-MP2 total energy:                -76.22411113

 ITER.      SQ.NORM     CORR.ENERGY   TOTAL ENERGY   ENERGY CHANGE        DEN1      VAR(S)    VAR(P)  DIIS     TIME  TIME/IT
   1      1.05436278    -0.21212284   -76.23610830    -0.00849315    -0.00471669  0.30D-03  0.73D-03  1  1     0.01     0.00
   2      1.05781440    -0.21313028   -76.23711574    -0.00100744    -0.00407706  0.62D-05  0.66D-04  2  2     0.01     0.00
   3      1.05872955    -0.21321552   -76.23720098    -0.00008524    -0.00066407  0.25D-05  0.28D-05  3  3     0.01     0.00
   4      1.05894470    -0.21321964   -76.23720510    -0.00000412    -0.00011167  0.18D-06  0.17D-06  4  4     0.01     0.00
   5      1.05898820    -0.21321801   -76.23720347     0.00000163    -0.00001858  0.49D-07  0.11D-07  5  5     0.01     0.00
   6      1.05899521    -0.21321793   -76.23720339     0.00000008     0.00000031  0.58D-08  0.12D-08  6  6     0.02     0.00
   7      1.05899877    -0.21321785   -76.23720331     0.00000007    -0.00000034  0.20D-09  0.99D-10  6  1     0.02     0.00
   8      1.05899923    -0.21321780   -76.23720326     0.00000006     0.00000010  0.60D-11  0.72D-11  6  2     0.02     0.00
   9      1.05899937    -0.21321778   -76.23720325     0.00000001    -0.00000007  0.13D-12  0.46D-12  6  3     0.02     0.00
  10      1.05899941    -0.21321778   -76.23720324     0.00000000    -0.00000003  0.34D-14  0.14D-13  6  4     0.02     0.00
  11      1.05899941    -0.21321778   -76.23720324     0.00000000    -0.00000000  0.35D-15  0.56D-15  6  6     0.03     0.00
  12      1.05899942    -0.21321778   -76.23720324     0.00000000    -0.00000000  0.76D-17  0.21D-16  6  5     0.03     0.00
  13      1.05899942    -0.21321778   -76.23720324     0.00000000    -0.00000000  0.17D-17  0.17D-17  6  1     0.03     0.00

 Norm of t1 vector:      0.02540597      S-energy:    -0.00000000      T1 diagnostic:  0.00635149
                                                                       D1 diagnostic:  0.01232961

 Doubles amplitudes (print threshold =  0.500E-01):

         I         J         SYM. A    SYM. B    A         B      T(IJ, AB)

         3         3         2         2         1         1     -0.05148430

 Total CPU time for triples:      0.00 sec


 RESULTS
 =======

  Reference energy                    -76.023985461055
  CCSD singlet pair energy             -0.145266478854
  CCSD triplet pair energy             -0.067951303367
  CCSD correlation energy              -0.213217782237

  Triples (T) contribution             -0.003168639590
  Total correlation energy             -0.216386421828

  CCSD total energy                   -76.237203243292
  CCSD[T] energy                      -76.240464996331
  CCSD-T energy                       -76.240312714397
 !CCSD(T) total energy                -76.240371882883

 Timing summary (sec):

 STEP                 CPU(USER)    SYS     CPU(TOT)    WALL
 Transformation          0.01      0.00      0.01      0.01
 CCSD iterations         0.02      0.01      0.03      0.02

 Program statistics:

 Available memory in ccsd:               999998800
 Min. memory needed in ccsd:                  5661
 Max. memory used in ccsd:                    6126
 Max. memory used in cckext:                 38485 (13 integral passes)



 **********************************************************************************************************************************
 DATASETS  * FILE   NREC   LENGTH (MB)   RECORD NAMES
              1      20       19.26       500      610      700      900      950      970     1000      129      960     1100   
                                          VAR    BASINP    GEOM    SYMINP    ZMAT    AOBASIS   BASIS     P2S    ABASIS      S 
                                         1400     1410     1200     1210     1080     1600     1650     1700     2100     1380   
                                           T        V       H0       H01     AOSYM     SMH    MOLCAS    OPER      RHF     JKOP   

              2       5        0.39       700     1000      520     2100     5600   
                                         GEOM     BASIS   MCVARS     RHF     GINFO   

 PROGRAMS   *        TOTAL   CCSD(T)   CCSD(T)       RHF       INT
 CPU TIMES  *         0.54      0.05      0.04      0.01      0.19
 REAL TIME  *         1.04 SEC
 DISK USED  *        71.81 MB      
 SF USED    *         0.16 MB      
 GA USED    *         0.00 MB       (max)       0.00 MB       (current)
 **********************************************************************************************************************************
 Starting task   2 Incrementing variable R1       by  -0.00529 ANG to    0.97471 ANG. CPU=    0.23 sec, Elapsed=    0.22 sec


 Recomputing integrals since geometry changed

1PROGRAM * SEWARD (Integral evaluation for generally contracted gaussian basis sets)     Author: Roland Lindh, 1990

 Geometry written to block  1 of record 700

 Orientation using atomic masses  
 Molecule type: Asymmetric top,     Order of principal axis = 2
 Symmetry elements: X,Y
 Rotational constants:     275.4297327    792.7374985    422.0765506 GHz  (calculated with average atomic masses)

 Point group  C2v 



 ATOMIC COORDINATES

 NR  ATOM    CHARGE       X              Y              Z

   1  O       8.00    0.000000000    0.000000000   -0.126183550
   2  H       1.00    0.000000000    1.456396113    1.001478805
   3  H       1.00    0.000000000   -1.456396113    1.001478805

 Bond lengths in Bohr (Angstrom)

 1-2  1.841931602  1-3  1.841931602
     ( 0.974708228)     ( 0.974708228)

 Bond angles

  2-1-3  104.50000000

 NUCLEAR CHARGE:                   10
 NUMBER OF PRIMITIVE AOS:          41
 NUMBER OF SYMMETRY AOS:           40
 NUMBER OF CONTRACTIONS:           24   (  11A1  +   4B1  +   7B2  +   2A2  )
 NUMBER OF CORE ORBITALS:           1   (   1A1  +   0B1  +   0B2  +   0A2  )
 NUMBER OF VALENCE ORBITALS:        6   (   3A1  +   1B1  +   2B2  +   0A2  )


 NUCLEAR REPULSION ENERGY    9.02984639

 Eigenvalues of metric

         1 0.179E-01 0.529E-01 0.162E+00 0.223E+00 0.527E+00 0.986E+00 0.101E+01 0.128E+01
         2 0.183E+00 0.539E+00 0.110E+01 0.223E+01
         3 0.467E-01 0.998E-01 0.175E+00 0.682E+00 0.103E+01 0.118E+01 0.255E+01
         4 0.633E+00 0.132E+01


 Contracted 2-electron integrals neglected if value below      1.0D-14
 AO integral compression algorithm  1   Integral accuracy      1.0D-14

     0.786 MB (compressed) written to integral file (100.0%)

     Node minimum: 0.262 MB, node maximum: 0.262 MB


 NUMBER OF SORTED TWO-ELECTRON INTEGRALS:       4533.     BUFFER LENGTH:  32768
 NUMBER OF SEGMENTS:   1  SEGMENT LENGTH:       4533      RECORD LENGTH: 524288

 Memory used in sort:       0.56 MW

 SORT1 READ       19290. AND WROTE        4208. INTEGRALS IN      1 RECORDS. CPU TIME:     0.00 SEC, REAL TIME:     0.00 SEC
 SORT2 READ       12665. AND WROTE       13826. INTEGRALS IN      3 RECORDS. CPU TIME:     0.01 SEC, REAL TIME:     0.00 SEC

 Node minimum:        4366.  Node maximum:        4927. integrals

 OPERATOR DM      FOR CENTER  0  COORDINATES:    0.000000    0.000000    0.000000
1PROGRAM * RHF-SCF (CLOSED SHELL)       Authors: W. Meyer, H.-J. Werner


 NUMBER OF ELECTRONS:       5+    5-
 CONVERGENCE THRESHOLDS:    1.00E-10 (Density)    1.00E-11 (Energy)
 MAX. NUMBER OF ITERATIONS:       60
 INTERPOLATION TYPE:            DIIS
 INTERPOLATION STEPS:              2 (START)      1 (STEP)
 LEVEL SHIFTS:                  0.00 (CLOSED)  0.00 (OPEN) 

 Number of closed-shell orbitals:    5 (   3   1   1   0 )


 Molecular orbitals read from record     2100.2  Type=RHF/CANONICAL (state 1.1)

 Molecular orbital dump at record        2100.1

 ITERATION    DDIFF          GRAD             ENERGY        2-EL.EN.            DIPOLE MOMENTS         DIIS   ORB.
    1      0.000D+00      0.000D+00       -76.02536842     75.581340    0.00000    0.00000    0.81463    0    start
    2      0.000D+00      0.713D-03       -76.02538544     75.610530    0.00000    0.00000    0.81456    1    diag
    3      0.212D-02      0.198D-03       -76.02538664     75.597417    0.00000    0.00000    0.81468    2    diag
    4      0.464D-03      0.814D-04       -76.02538688     75.603584    0.00000    0.00000    0.81535    3    diag
    5      0.133D-03      0.197D-04       -76.02538690     75.603015    0.00000    0.00000    0.81548    4    diag
    6      0.443D-04      0.487D-05       -76.02538691     75.603040    0.00000    0.00000    0.81555    5    diag
    7      0.152D-04      0.938D-06       -76.02538691     75.603037    0.00000    0.00000    0.81556    6    diag
    8      0.283D-05      0.120D-06       -76.02538691     75.603038    0.00000    0.00000    0.81556    7    orth
    9      0.319D-06      0.189D-07       -76.02538691     75.603038    0.00000    0.00000    0.81556    8    diag
   10      0.537D-07      0.172D-08       -76.02538691     75.603038    0.00000    0.00000    0.81556    9    diag
   11      0.492D-08      0.248D-09       -76.02538691     75.603038    0.00000    0.00000    0.81556    9    diag
   12      0.616D-09      0.305D-10       -76.02538691     75.603038    0.00000    0.00000    0.81556    9    diag
   13      0.769D-10      0.198D-11       -76.02538691     75.603038    0.00000    0.00000    0.81556    0    orth

 Final occupancy:   3   1   1   0

 !RHF STATE 1.1 Energy                -76.025386905220
 Nuclear energy                         9.02984639
 One-electron energy                 -122.85675230
 Two-electron energy                   37.80151901
 Virial quotient                       -1.00134316
 !RHF STATE 1.1 Dipole moment           0.00000000     0.00000000     0.81555926
 Dipole moment /Debye                   0.00000000     0.00000000     2.07280910

 Orbital energies:

         1.1          2.1          3.1          4.1          5.1
    -20.553491    -1.328022    -0.563371     0.182569     0.838236

         1.2          2.2          3.2
     -0.491943     1.199987     1.671518

         1.3          2.3          3.3
     -0.690029     0.253615     0.777006

         1.4          2.4
      1.471895     3.321842

 HOMO      1.2    -0.491943 =     -13.3865eV
 LUMO      4.1     0.182569 =       4.9680eV
 LUMO-HOMO         0.674512 =      18.3544eV


 **********************************************************************************************************************************
 DATASETS  * FILE   NREC   LENGTH (MB)   RECORD NAMES
              1      19       19.20       500      610      700      900      950      970     1000      129      960     1100   
                                          VAR    BASINP    GEOM    SYMINP    ZMAT    AOBASIS   BASIS     P2S    ABASIS      S 
                                         1400     1410     1200     1210     1080     1600     1650     1700     2100   
                                           T        V       H0       H01     AOSYM     SMH    MOLCAS    OPER      RHF  

              2       5        0.39       700     1000      520     2100     5600   
                                         GEOM     BASIS   MCVARS     RHF     GINFO   

 PROGRAMS   *        TOTAL       RHF   CCSD(T)       RHF       INT
 CPU TIMES  *         0.67      0.13      0.04      0.01      0.19
 REAL TIME  *         1.20 SEC
 DISK USED  *        71.90 MB      
 SF USED    *         0.16 MB      
 GA USED    *         0.00 MB       (max)       0.00 MB       (current)
 **********************************************************************************************************************************


1PROGRAM * CCSD (Closed-shell coupled cluster)     Authors: C. Hampel, H.-J. Werner, 1991, M. Deegan, P.J. Knowles, 1992


 Convergence thresholds:  THRVAR = 1.00D-14  THRDEN = 1.00D-10

 CCSD(T)     terms to be evaluated (factor= 1.000)


 Number of core orbitals:           1 (   1   0   0   0 )
 Number of closed-shell orbitals:   4 (   2   1   1   0 )
 Number of external orbitals:      19 (   8   3   6   2 )

 Molecular orbitals read from record     2100.1  Type=RHF/CANONICAL (state 1.1)

 Number of N-1 electron functions:               4
 Number of N-2 electron functions:              10
 Number of singly external CSFs:                25
 Number of doubly external CSFs:               805
 Total number of CSFs:                         831

 Length of J-op  integral file:               0.00 MB
 Length of K-op  integral file:               0.01 MB
 Length of 3-ext integral record:             0.00 MB

 Memory could be reduced to 0.31 Mwords without degradation in triples

 Integral transformation finished. Total CPU:   0.01 sec, npass=  1  Memory used:   0.07 MW

 Reference energy:                    -76.02538691

 MP2 singlet pair energy:              -0.12650151
 MP2 triplet pair energy:              -0.07636872
 MP2 correlation energy:               -0.20287022
 MP2 total energy:                    -76.22825713

 SCS-MP2 correlation energy:           -0.19932012   (PS=  1.200000  PT=  0.333333)
 SCS-MP2 total energy:                -76.22470703

 ITER.      SQ.NORM     CORR.ENERGY   TOTAL ENERGY   ENERGY CHANGE        DEN1      VAR(S)    VAR(P)  DIIS     TIME  TIME/IT
   1      1.05375168    -0.21139256   -76.23677947    -0.00852234    -0.00483166  0.29D-03  0.71D-03  1  1     0.01     0.00
   2      1.05707610    -0.21236719   -76.23775410    -0.00097463    -0.00399343  0.58D-05  0.62D-04  2  2     0.01     0.00
   3      1.05793114    -0.21244752   -76.23783442    -0.00008033    -0.00063216  0.22D-05  0.25D-05  3  3     0.01     0.00
   4      1.05812851    -0.21245102   -76.23783792    -0.00000350    -0.00010472  0.16D-06  0.15D-06  4  4     0.01     0.00
   5      1.05816721    -0.21244947   -76.23783637     0.00000155    -0.00001711  0.42D-07  0.91D-08  5  5     0.01     0.00
   6      1.05817312    -0.21244940   -76.23783630     0.00000007     0.00000035  0.51D-08  0.10D-08  6  6     0.02     0.00
   7      1.05817629    -0.21244933   -76.23783624     0.00000007    -0.00000031  0.18D-09  0.84D-10  6  1     0.02     0.00
   8      1.05817671    -0.21244928   -76.23783619     0.00000005     0.00000008  0.49D-11  0.60D-11  6  2     0.02     0.00
   9      1.05817683    -0.21244927   -76.23783618     0.00000001    -0.00000006  0.11D-12  0.37D-12  6  3     0.02     0.00
  10      1.05817687    -0.21244927   -76.23783617     0.00000000    -0.00000003  0.26D-14  0.11D-13  6  4     0.02     0.00
  11      1.05817687    -0.21244927   -76.23783617     0.00000000    -0.00000000  0.25D-15  0.43D-15  6  6     0.02     0.00
  12      1.05817687    -0.21244927   -76.23783617     0.00000000    -0.00000000  0.53D-17  0.16D-16  6  5     0.03     0.00
  13      1.05817687    -0.21244927   -76.23783617     0.00000000    -0.00000000  0.12D-17  0.12D-17  6  1     0.03     0.00

 Norm of t1 vector:      0.02466831      S-energy:    -0.00000000      T1 diagnostic:  0.00616708
                                                                       D1 diagnostic:  0.01185365

 Doubles amplitudes (print threshold =  0.500E-01):

         I         J         SYM. A    SYM. B    A         B      T(IJ, AB)

         3         3         2         2         1         1     -0.05147063

 Total CPU time for triples:      0.00 sec


 RESULTS
 =======

  Reference energy                    -76.025386905220
  CCSD singlet pair energy             -0.144492477279
  CCSD triplet pair energy             -0.067956790748
  CCSD correlation energy              -0.212449268040

  Triples (T) contribution             -0.003116460054
  Total correlation energy             -0.215565728093

  CCSD total energy                   -76.237836173260
  CCSD[T] energy                      -76.241042486115
  CCSD-T energy                       -76.240895266581
 !CCSD(T) total energy                -76.240952633313

 Timing summary (sec):

 STEP                 CPU(USER)    SYS     CPU(TOT)    WALL
 Transformation          0.01      0.01      0.02      0.00
 CCSD iterations         0.02      0.00      0.02      0.03

 Program statistics:

 Available memory in ccsd:               999998800
 Min. memory needed in ccsd:                  5661
 Max. memory used in ccsd:                    6126
 Max. memory used in cckext:                 38485 (13 integral passes)



 **********************************************************************************************************************************
 DATASETS  * FILE   NREC   LENGTH (MB)   RECORD NAMES
              1      20       19.26       500      610      700      900      950      970     1000      129      960     1100   
                                          VAR    BASINP    GEOM    SYMINP    ZMAT    AOBASIS   BASIS     P2S    ABASIS      S 
                                         1400     1410     1200     1210     1080     1600     1650     1700     2100     1380   
                                           T        V       H0       H01     AOSYM     SMH    MOLCAS    OPER      RHF     JKOP   

              2       5        0.39       700     1000      520     2100     5600   
                                         GEOM     BASIS   MCVARS     RHF     GINFO   

 PROGRAMS   *        TOTAL   CCSD(T)   CCSD(T)       RHF       INT
 CPU TIMES  *         0.72      0.05      0.04      0.01      0.19
 REAL TIME  *         1.26 SEC
 DISK USED  *        71.90 MB      
 SF USED    *         0.16 MB      
 GA USED    *         0.00 MB       (max)       0.00 MB       (current)
 **********************************************************************************************************************************
 Starting task   3 Incrementing variable A1       by   1.00000 DEG to  105.50000 DEG. CPU=    0.44 sec, Elapsed=    0.44 sec


 Recomputing integrals since geometry changed

1PROGRAM * SEWARD (Integral evaluation for generally contracted gaussian basis sets)     Author: Roland Lindh, 1990

 Geometry written to block  1 of record 700

 Orientation using atomic masses  
 Molecule type: Asymmetric top,     Order of principal axis = 2
 Symmetry elements: X,Y
 Rotational constants:     272.1952736    802.2411984    411.9761181 GHz  (calculated with average atomic masses)

 Point group  C2v 



 ATOMIC COORDINATES

 NR  ATOM    CHARGE       X              Y              Z

   1  O       8.00    0.000000000    0.000000000   -0.125433911
   2  H       1.00    0.000000000    1.474141264    0.995529154
   3  H       1.00    0.000000000   -1.474141264    0.995529154

 Bond lengths in Bohr (Angstrom)

 1-2  1.851931602  1-3  1.851931602
     ( 0.980000000)     ( 0.980000000)

 Bond angles

  2-1-3  105.50000000

 NUCLEAR CHARGE:                   10
 NUMBER OF PRIMITIVE AOS:          41
 NUMBER OF SYMMETRY AOS:           40
 NUMBER OF CONTRACTIONS:           24   (  11A1  +   4B1  +   7B2  +   2A2  )
 NUMBER OF CORE ORBITALS:           1   (   1A1  +   0B1  +   0B2  +   0A2  )
 NUMBER OF VALENCE ORBITALS:        6   (   3A1  +   1B1  +   2B2  +   0A2  )


 NUCLEAR REPULSION ENERGY    8.97880845

 Eigenvalues of metric

         1 0.182E-01 0.537E-01 0.163E+00 0.224E+00 0.530E+00 0.986E+00 0.101E+01 0.128E+01
         2 0.183E+00 0.545E+00 0.110E+01 0.222E+01
         3 0.471E-01 0.100E+00 0.177E+00 0.688E+00 0.103E+01 0.119E+01 0.256E+01
         4 0.636E+00 0.132E+01


 Contracted 2-electron integrals neglected if value below      1.0D-14
 AO integral compression algorithm  1   Integral accuracy      1.0D-14

     0.786 MB (compressed) written to integral file (100.0%)

     Node minimum: 0.262 MB, node maximum: 0.262 MB


 NUMBER OF SORTED TWO-ELECTRON INTEGRALS:       4533.     BUFFER LENGTH:  32768
 NUMBER OF SEGMENTS:   1  SEGMENT LENGTH:       4533      RECORD LENGTH: 524288

 Memory used in sort:       0.56 MW

 SORT1 READ       19290. AND WROTE        4208. INTEGRALS IN      1 RECORDS. CPU TIME:     0.00 SEC, REAL TIME:     0.00 SEC
 SORT2 READ       12665. AND WROTE       13826. INTEGRALS IN      3 RECORDS. CPU TIME:     0.00 SEC, REAL TIME:     0.01 SEC

 Node minimum:        4366.  Node maximum:        4927. integrals

 OPERATOR DM      FOR CENTER  0  COORDINATES:    0.000000    0.000000    0.000000
1PROGRAM * RHF-SCF (CLOSED SHELL)       Authors: W. Meyer, H.-J. Werner


 NUMBER OF ELECTRONS:       5+    5-
 CONVERGENCE THRESHOLDS:    1.00E-10 (Density)    1.00E-11 (Energy)
 MAX. NUMBER OF ITERATIONS:       60
 INTERPOLATION TYPE:            DIIS
 INTERPOLATION STEPS:              2 (START)      1 (STEP)
 LEVEL SHIFTS:                  0.00 (CLOSED)  0.00 (OPEN) 

 Number of closed-shell orbitals:    5 (   3   1   1   0 )


 Molecular orbitals read from record     2100.2  Type=RHF/CANONICAL (state 1.1)

 Molecular orbital dump at record        2100.1

 ITERATION    DDIFF          GRAD             ENERGY        2-EL.EN.            DIPOLE MOMENTS         DIIS   ORB.
    1      0.000D+00      0.000D+00       -76.02463401     75.526415    0.00000    0.00000    0.81157    0    start
    2      0.000D+00      0.646D-03       -76.02464974     75.530749    0.00000    0.00000    0.81089    1    diag
    3      0.182D-02      0.134D-03       -76.02465061     75.528823    0.00000    0.00000    0.81102    2    diag
    4      0.467D-03      0.225D-04       -76.02465063     75.530711    0.00000    0.00000    0.81128    3    diag
    5      0.451D-04      0.121D-04       -76.02465064     75.530144    0.00000    0.00000    0.81132    4    diag
    6      0.222D-04      0.222D-05       -76.02465064     75.530169    0.00000    0.00000    0.81136    5    diag
    7      0.702D-05      0.326D-06       -76.02465064     75.530169    0.00000    0.00000    0.81136    6    diag
    8      0.908D-06      0.814D-07       -76.02465064     75.530169    0.00000    0.00000    0.81136    7    orth
    9      0.223D-06      0.136D-07       -76.02465064     75.530169    0.00000    0.00000    0.81136    8    diag
   10      0.392D-07      0.158D-08       -76.02465064     75.530169    0.00000    0.00000    0.81136    9    diag
   11      0.411D-08      0.238D-09       -76.02465064     75.530169    0.00000    0.00000    0.81136    9    diag
   12      0.643D-09      0.194D-10       -76.02465064     75.530169    0.00000    0.00000    0.81136    9    diag
   13      0.472D-10      0.189D-11       -76.02465064     75.530169    0.00000    0.00000    0.81136    0    orth

 Final occupancy:   3   1   1   0

 !RHF STATE 1.1 Energy                -76.024650641313
 Nuclear energy                         8.97880845
 One-electron energy                 -122.76854358
 Two-electron energy                   37.76508449
 Virial quotient                       -1.00160309
 !RHF STATE 1.1 Dipole moment           0.00000000     0.00000000     0.81136033
 Dipole moment /Debye                   0.00000000     0.00000000     2.06213718

 Orbital energies:

         1.1          2.1          3.1          4.1          5.1
    -20.553829    -1.324705    -0.560367     0.181792     0.829056

         1.2          2.2          3.2
     -0.491214     1.200069     1.675958

         1.3          2.3          3.3
     -0.689072     0.252703     0.776779

         1.4          2.4
      1.467505     3.320443

 HOMO      1.2    -0.491214 =     -13.3666eV
 LUMO      4.1     0.181792 =       4.9468eV
 LUMO-HOMO         0.673006 =      18.3134eV


 **********************************************************************************************************************************
 DATASETS  * FILE   NREC   LENGTH (MB)   RECORD NAMES
              1      19       19.20       500      610      700      900      950      970     1000      129      960     1100   
                                          VAR    BASINP    GEOM    SYMINP    ZMAT    AOBASIS   BASIS     P2S    ABASIS      S 
                                         1400     1410     1200     1210     1080     1600     1650     1700     2100   
                                           T        V       H0       H01     AOSYM     SMH    MOLCAS    OPER      RHF  

              2       5        0.39       700     1000      520     2100     5600   
                                         GEOM     BASIS   MCVARS     RHF     GINFO   

 PROGRAMS   *        TOTAL       RHF   CCSD(T)       RHF       INT
 CPU TIMES  *         0.85      0.13      0.04      0.01      0.19
 REAL TIME  *         1.42 SEC
 DISK USED  *        71.90 MB      
 SF USED    *         0.16 MB      
 GA USED    *         0.00 MB       (max)       0.00 MB       (current)
 **********************************************************************************************************************************


1PROGRAM * CCSD (Closed-shell coupled cluster)     Authors: C. Hampel, H.-J. Werner, 1991, M. Deegan, P.J. Knowles, 1992


 Convergence thresholds:  THRVAR = 1.00D-14  THRDEN = 1.00D-10

 CCSD(T)     terms to be evaluated (factor= 1.000)


 Number of core orbitals:           1 (   1   0   0   0 )
 Number of closed-shell orbitals:   4 (   2   1   1   0 )
 Number of external orbitals:      19 (   8   3   6   2 )

 Molecular orbitals read from record     2100.1  Type=RHF/CANONICAL (state 1.1)

 Number of N-1 electron functions:               4
 Number of N-2 electron functions:              10
 Number of singly external CSFs:                25
 Number of doubly external CSFs:               805
 Total number of CSFs:                         831

 Length of J-op  integral file:               0.00 MB
 Length of K-op  integral file:               0.01 MB
 Length of 3-ext integral record:             0.00 MB

 Memory could be reduced to 0.31 Mwords without degradation in triples

 Integral transformation finished. Total CPU:   0.00 sec, npass=  1  Memory used:   0.07 MW

 Reference energy:                    -76.02465064

 MP2 singlet pair energy:              -0.12672857
 MP2 triplet pair energy:              -0.07641817
 MP2 correlation energy:               -0.20314674
 MP2 total energy:                    -76.22779738

 SCS-MP2 correlation energy:           -0.19962336   (PS=  1.200000  PT=  0.333333)
 SCS-MP2 total energy:                -76.22427400

 ITER.      SQ.NORM     CORR.ENERGY   TOTAL ENERGY   ENERGY CHANGE        DEN1      VAR(S)    VAR(P)  DIIS     TIME  TIME/IT
   1      1.05400926    -0.21166564   -76.23631628    -0.00851891    -0.00479217  0.30D-03  0.72D-03  1  1     0.01     0.00
   2      1.05739164    -0.21265694   -76.23730758    -0.00099129    -0.00403080  0.60D-05  0.64D-04  2  2     0.01     0.00
   3      1.05827369    -0.21273963   -76.23739028    -0.00008270    -0.00064640  0.24D-05  0.26D-05  3  3     0.02     0.00
   4      1.05847906    -0.21274344   -76.23739408    -0.00000380    -0.00010767  0.17D-06  0.16D-06  4  4     0.02     0.00
   5      1.05852037    -0.21274186   -76.23739250     0.00000158    -0.00001786  0.47D-07  0.10D-07  5  5     0.02     0.00
   6      1.05852697    -0.21274179   -76.23739243     0.00000007     0.00000033  0.56D-08  0.11D-08  6  6     0.02     0.00
   7      1.05853041    -0.21274172   -76.23739236     0.00000007    -0.00000033  0.19D-09  0.94D-10  6  1     0.02     0.00
   8      1.05853085    -0.21274166   -76.23739230     0.00000005     0.00000009  0.54D-11  0.66D-11  6  2     0.03     0.00
   9      1.05853098    -0.21274165   -76.23739229     0.00000001    -0.00000006  0.11D-12  0.42D-12  6  3     0.03     0.00
  10      1.05853102    -0.21274165   -76.23739229     0.00000000    -0.00000003  0.30D-14  0.12D-13  6  4     0.03     0.00
  11      1.05853103    -0.21274165   -76.23739229     0.00000000    -0.00000000  0.30D-15  0.50D-15  6  6     0.03     0.00
  12      1.05853103    -0.21274165   -76.23739229     0.00000000    -0.00000000  0.74D-17  0.19D-16  6  5     0.03     0.00
  13      1.05853103    -0.21274165   -76.23739229     0.00000000    -0.00000000  0.16D-17  0.14D-17  6  1     0.03     0.00

 Norm of t1 vector:      0.02499031      S-energy:    -0.00000000      T1 diagnostic:  0.00624758
                                                                       D1 diagnostic:  0.01212684

 Doubles amplitudes (print threshold =  0.500E-01):

         I         J         SYM. A    SYM. B    A         B      T(IJ, AB)

         3         3         2         2         1         1     -0.05148678

 Total CPU time for triples:      0.00 sec


 RESULTS
 =======

  Reference energy                    -76.024650641313
  CCSD singlet pair energy             -0.144815200293
  CCSD triplet pair energy             -0.067926447656
  CCSD correlation energy              -0.212741647965

  Triples (T) contribution             -0.003132021051
  Total correlation energy             -0.215873669015

  CCSD total energy                   -76.237392289277
  CCSD[T] energy                      -76.240615284740
  CCSD-T energy                       -76.240466399642
 !CCSD(T) total energy                -76.240524310328

 Timing summary (sec):

 STEP                 CPU(USER)    SYS     CPU(TOT)    WALL
 CCSD iterations         0.03      0.00      0.03      0.03

 Program statistics:

 Available memory in ccsd:               999998800
 Min. memory needed in ccsd:                  5661
 Max. memory used in ccsd:                    6126
 Max. memory used in cckext:                 38485 (13 integral passes)



 **********************************************************************************************************************************
 DATASETS  * FILE   NREC   LENGTH (MB)   RECORD NAMES
              1      20       19.26       500      610      700      900      950      970     1000      129      960     1100   
                                          VAR    BASINP    GEOM    SYMINP    ZMAT    AOBASIS   BASIS     P2S    ABASIS      S 
                                         1400     1410     1200     1210     1080     1600     1650     1700     2100     1380   
                                           T        V       H0       H01     AOSYM     SMH    MOLCAS    OPER      RHF     JKOP   

              2       5        0.39       700     1000      520     2100     5600   
                                         GEOM     BASIS   MCVARS     RHF     GINFO   

 PROGRAMS   *        TOTAL   CCSD(T)   CCSD(T)       RHF       INT
 CPU TIMES  *         0.90      0.05      0.04      0.01      0.19
 REAL TIME  *         1.48 SEC
 DISK USED  *        71.90 MB      
 SF USED    *         0.16 MB      
 GA USED    *         0.00 MB       (max)       0.00 MB       (current)
 **********************************************************************************************************************************
 Starting task   4 Incrementing variable A1       by  -1.00000 DEG to  103.50000 DEG. CPU=    0.66 sec, Elapsed=    0.66 sec


 Recomputing integrals since geometry changed

1PROGRAM * SEWARD (Integral evaluation for generally contracted gaussian basis sets)     Author: Roland Lindh, 1990

 Geometry written to block  1 of record 700

 Orientation using atomic masses  
 Molecule type: Asymmetric top,     Order of principal axis = 2
 Symmetry elements: X,Y
 Rotational constants:     272.7329716    766.8749697    423.2631312 GHz  (calculated with average atomic masses)

 Point group  C2v 



 ATOMIC COORDINATES

 NR  ATOM    CHARGE       X              Y              Z

   1  O       8.00    0.000000000    0.000000000   -0.128293650
   2  H       1.00    0.000000000    1.454353242    1.018225999
   3  H       1.00    0.000000000   -1.454353242    1.018225999

 Bond lengths in Bohr (Angstrom)

 1-2  1.851931602  1-3  1.851931602
     ( 0.980000000)     ( 0.980000000)

 Bond angles

  2-1-3  103.50000000

 NUCLEAR CHARGE:                   10
 NUMBER OF PRIMITIVE AOS:          41
 NUMBER OF SYMMETRY AOS:           40
 NUMBER OF CONTRACTIONS:           24   (  11A1  +   4B1  +   7B2  +   2A2  )
 NUMBER OF CORE ORBITALS:           1   (   1A1  +   0B1  +   0B2  +   0A2  )
 NUMBER OF VALENCE ORBITALS:        6   (   3A1  +   1B1  +   2B2  +   0A2  )


 NUCLEAR REPULSION ENERGY    8.98342336

 Eigenvalues of metric

         1 0.180E-01 0.536E-01 0.163E+00 0.224E+00 0.535E+00 0.986E+00 0.101E+01 0.128E+01
         2 0.183E+00 0.543E+00 0.110E+01 0.222E+01
         3 0.476E-01 0.100E+00 0.176E+00 0.685E+00 0.102E+01 0.118E+01 0.255E+01
         4 0.639E+00 0.131E+01


 Contracted 2-electron integrals neglected if value below      1.0D-14
 AO integral compression algorithm  1   Integral accuracy      1.0D-14

     0.786 MB (compressed) written to integral file (100.0%)

     Node minimum: 0.262 MB, node maximum: 0.262 MB


 NUMBER OF SORTED TWO-ELECTRON INTEGRALS:       4533.     BUFFER LENGTH:  32768
 NUMBER OF SEGMENTS:   1  SEGMENT LENGTH:       4533      RECORD LENGTH: 524288

 Memory used in sort:       0.56 MW

 SORT1 READ       19290. AND WROTE        4208. INTEGRALS IN      1 RECORDS. CPU TIME:     0.00 SEC, REAL TIME:     0.00 SEC
 SORT2 READ       12665. AND WROTE       13826. INTEGRALS IN      3 RECORDS. CPU TIME:     0.01 SEC, REAL TIME:     0.00 SEC

 Node minimum:        4366.  Node maximum:        4927. integrals

 OPERATOR DM      FOR CENTER  0  COORDINATES:    0.000000    0.000000    0.000000
1PROGRAM * RHF-SCF (CLOSED SHELL)       Authors: W. Meyer, H.-J. Werner


 NUMBER OF ELECTRONS:       5+    5-
 CONVERGENCE THRESHOLDS:    1.00E-10 (Density)    1.00E-11 (Energy)
 MAX. NUMBER OF ITERATIONS:       60
 INTERPOLATION TYPE:            DIIS
 INTERPOLATION STEPS:              2 (START)      1 (STEP)
 LEVEL SHIFTS:                  0.00 (CLOSED)  0.00 (OPEN) 

 Number of closed-shell orbitals:    5 (   3   1   1   0 )


 Molecular orbitals read from record     2100.2  Type=RHF/CANONICAL (state 1.1)

 Molecular orbital dump at record        2100.1

 ITERATION    DDIFF          GRAD             ENERGY        2-EL.EN.            DIPOLE MOMENTS         DIIS   ORB.
    1      0.000D+00      0.000D+00       -76.02474914     75.527993    0.00000    0.00000    0.82338    0    start
    2      0.000D+00      0.647D-03       -76.02476486     75.523297    0.00000    0.00000    0.82394    1    diag
    3      0.182D-02      0.134D-03       -76.02476573     75.525500    0.00000    0.00000    0.82383    2    diag
    4      0.470D-03      0.237D-04       -76.02476575     75.523500    0.00000    0.00000    0.82357    3    diag
    5      0.457D-04      0.122D-04       -76.02476576     75.524058    0.00000    0.00000    0.82352    4    diag
    6      0.229D-04      0.217D-05       -76.02476576     75.524038    0.00000    0.00000    0.82349    5    diag
    7      0.694D-05      0.303D-06       -76.02476576     75.524038    0.00000    0.00000    0.82348    6    diag
    8      0.846D-06      0.744D-07       -76.02476576     75.524038    0.00000    0.00000    0.82348    7    orth
    9      0.199D-06      0.136D-07       -76.02476576     75.524038    0.00000    0.00000    0.82348    8    diag
   10      0.393D-07      0.156D-08       -76.02476576     75.524038    0.00000    0.00000    0.82348    9    diag
   11      0.403D-08      0.231D-09       -76.02476576     75.524038    0.00000    0.00000    0.82348    9    diag
   12      0.628D-09      0.197D-10       -76.02476576     75.524038    0.00000    0.00000    0.82348    9    diag
   13      0.475D-10      0.182D-11       -76.02476576     75.524038    0.00000    0.00000    0.82348    0    orth

 Final occupancy:   3   1   1   0

 !RHF STATE 1.1 Energy                -76.024765759098
 Nuclear energy                         8.98342336
 One-electron energy                 -122.77020810
 Two-electron energy                   37.76201898
 Virial quotient                       -1.00156573
 !RHF STATE 1.1 Dipole moment           0.00000000     0.00000000     0.82348472
 Dipole moment /Debye                   0.00000000     0.00000000     2.09295230

 Orbital energies:

         1.1          2.1          3.1          4.1          5.1
    -20.554979    -1.326247    -0.564430     0.181466     0.837848

         1.2          2.2          3.2
     -0.491978     1.199483     1.665318

         1.3          2.3          3.3
     -0.685452     0.252860     0.770114

         1.4          2.4
      1.473827     3.313078

 HOMO      1.2    -0.491978 =     -13.3874eV
 LUMO      4.1     0.181466 =       4.9379eV
 LUMO-HOMO         0.673444 =      18.3253eV


 **********************************************************************************************************************************
 DATASETS  * FILE   NREC   LENGTH (MB)   RECORD NAMES
              1      19       19.20       500      610      700      900      950      970     1000      129      960     1100   
                                          VAR    BASINP    GEOM    SYMINP    ZMAT    AOBASIS   BASIS     P2S    ABASIS      S 
                                         1400     1410     1200     1210     1080     1600     1650     1700     2100   
                                           T        V       H0       H01     AOSYM     SMH    MOLCAS    OPER      RHF  

              2       5        0.39       700     1000      520     2100     5600   
                                         GEOM     BASIS   MCVARS     RHF     GINFO   

 PROGRAMS   *        TOTAL       RHF   CCSD(T)       RHF       INT
 CPU TIMES  *         1.04      0.14      0.04      0.01      0.19
 REAL TIME  *         1.64 SEC
 DISK USED  *        71.90 MB      
 SF USED    *         0.16 MB      
 GA USED    *         0.00 MB       (max)       0.00 MB       (current)
 **********************************************************************************************************************************


1PROGRAM * CCSD (Closed-shell coupled cluster)     Authors: C. Hampel, H.-J. Werner, 1991, M. Deegan, P.J. Knowles, 1992


 Convergence thresholds:  THRVAR = 1.00D-14  THRDEN = 1.00D-10

 CCSD(T)     terms to be evaluated (factor= 1.000)


 Number of core orbitals:           1 (   1   0   0   0 )
 Number of closed-shell orbitals:   4 (   2   1   1   0 )
 Number of external orbitals:      19 (   8   3   6   2 )

 Molecular orbitals read from record     2100.1  Type=RHF/CANONICAL (state 1.1)

 Number of N-1 electron functions:               4
 Number of N-2 electron functions:              10
 Number of singly external CSFs:                25
 Number of doubly external CSFs:               805
 Total number of CSFs:                         831

 Length of J-op  integral file:               0.00 MB
 Length of K-op  integral file:               0.01 MB
 Length of 3-ext integral record:             0.00 MB

 Memory could be reduced to 0.31 Mwords without degradation in triples

 Integral transformation finished. Total CPU:   0.01 sec, npass=  1  Memory used:   0.07 MW

 Reference energy:                    -76.02476576

 MP2 singlet pair energy:              -0.12685090
 MP2 triplet pair energy:              -0.07650623
 MP2 correlation energy:               -0.20335713
 MP2 total energy:                    -76.22812289

 SCS-MP2 correlation energy:           -0.19982495   (PS=  1.200000  PT=  0.333333)
 SCS-MP2 total energy:                -76.22459071

 ITER.      SQ.NORM     CORR.ENERGY   TOTAL ENERGY   ENERGY CHANGE        DEN1      VAR(S)    VAR(P)  DIIS     TIME  TIME/IT
   1      1.05410383    -0.21185254   -76.23661829    -0.00849541    -0.00475570  0.30D-03  0.72D-03  1  1     0.01     0.00
   2      1.05749610    -0.21284298   -76.23760874    -0.00099045    -0.00403907  0.60D-05  0.65D-04  2  2     0.01     0.00
   3      1.05838321    -0.21292575   -76.23769151    -0.00008277    -0.00064945  0.23D-05  0.27D-05  3  3     0.01     0.00
   4      1.05859000    -0.21292955   -76.23769531    -0.00000380    -0.00010861  0.16D-06  0.16D-06  4  4     0.01     0.00
   5      1.05863078    -0.21292795   -76.23769371     0.00000160    -0.00001780  0.44D-07  0.97D-08  5  5     0.01     0.00
   6      1.05863707    -0.21292787   -76.23769363     0.00000008     0.00000033  0.53D-08  0.11D-08  6  6     0.02     0.00
   7      1.05864035    -0.21292780   -76.23769356     0.00000007    -0.00000032  0.19D-09  0.90D-10  6  1     0.02     0.00
   8      1.05864078    -0.21292775   -76.23769351     0.00000005     0.00000009  0.55D-11  0.65D-11  6  2     0.02     0.00
   9      1.05864091    -0.21292774   -76.23769350     0.00000001    -0.00000006  0.12D-12  0.41D-12  6  3     0.02     0.00
  10      1.05864095    -0.21292774   -76.23769349     0.00000000    -0.00000003  0.29D-14  0.12D-13  6  4     0.02     0.00
  11      1.05864096    -0.21292774   -76.23769349     0.00000000    -0.00000000  0.28D-15  0.49D-15  6  6     0.02     0.00
  12      1.05864096    -0.21292774   -76.23769349     0.00000000    -0.00000000  0.55D-17  0.19D-16  6  5     0.02     0.00
  13      1.05864096    -0.21292774   -76.23769349     0.00000000    -0.00000000  0.13D-17  0.14D-17  6  1     0.03     0.00

 Norm of t1 vector:      0.02507961      S-energy:    -0.00000000      T1 diagnostic:  0.00626990
                                                                       D1 diagnostic:  0.01205168

 Doubles amplitudes (print threshold =  0.500E-01):

         I         J         SYM. A    SYM. B    A         B      T(IJ, AB)

         3         3         2         2         1         1     -0.05147316

 Total CPU time for triples:      0.00 sec


 RESULTS
 =======

  Reference energy                    -76.024765759098
  CCSD singlet pair energy             -0.144942216180
  CCSD triplet pair energy             -0.067985518976
  CCSD correlation energy              -0.212927735169

  Triples (T) contribution             -0.003153020239
  Total correlation energy             -0.216080755409

  CCSD total energy                   -76.237693494268
  CCSD[T] energy                      -76.240938482603
  CCSD-T energy                       -76.240787899918
 !CCSD(T) total energy                -76.240846514507

 Timing summary (sec):

 STEP                 CPU(USER)    SYS     CPU(TOT)    WALL
 Transformation          0.01      0.00      0.01      0.00
 CCSD iterations         0.02      0.01      0.03      0.04

 Program statistics:

 Available memory in ccsd:               999998800
 Min. memory needed in ccsd:                  5661
 Max. memory used in ccsd:                    6126
 Max. memory used in cckext:                 38485 (13 integral passes)



 **********************************************************************************************************************************
 DATASETS  * FILE   NREC   LENGTH (MB)   RECORD NAMES
              1      20       19.26       500      610      700      900      950      970     1000      129      960     1100   
                                          VAR    BASINP    GEOM    SYMINP    ZMAT    AOBASIS   BASIS     P2S    ABASIS      S 
                                         1400     1410     1200     1210     1080     1600     1650     1700     2100     1380   
                                           T        V       H0       H01     AOSYM     SMH    MOLCAS    OPER      RHF     JKOP   

              2       5        0.39       700     1000      520     2100     5600   
                                         GEOM     BASIS   MCVARS     RHF     GINFO   

 PROGRAMS   *        TOTAL   CCSD(T)   CCSD(T)       RHF       INT
 CPU TIMES  *         1.09      0.05      0.04      0.01      0.19
 REAL TIME  *         1.70 SEC
 DISK USED  *        71.90 MB      
 SF USED    *         0.16 MB      
 GA USED    *         0.00 MB       (max)       0.00 MB       (current)
 **********************************************************************************************************************************
 Numerical gradient completed. CPU-time:     0.89 sec, Elapsed:     0.88 sec

 Numerical gradient for CCSD(T)

 Total Energy           -76.24071023  Dipole moments:    0.000000    0.000000    0.000000

 Variable       Value            Gradient       Hessian                Dipole gradient
 R1             0.980 ANG      0.05487296     3.42605612      0.000000    0.000000    0.000000

 Variable       Value            Gradient       Hessian                Dipole gradient
 A1           104.500 DEG      0.00016110     0.00004963      0.000000    0.000000    0.000000
 Reading points  1 to  1 from record 700.2,  wavefunction type=CCSD(T)         

 Making model hessian for Z-matrix coordinates
 No hessian update for point  1

 Entering Rational Function Geometry Optimization

 Optimization point 1

 Variable                      Last           Current        Next           Gradient       Hessian

 E(CCSD(T)) / Hartree        0.00000000   -76.24071023   -76.24122282
 R1 / ANGSTROM               0.00000000     0.98000000     0.96844345     0.05487296     4.73808314
 A1 / DEGREE                 0.00000000   104.50000000   102.50000000     0.00016110     0.00006630
 Convergence:                0.00000000  (line search)     0.04117522     0.03046932  (total)

 Geometry written to block  2 of record 700


 Recomputing integrals since geometry changed

1PROGRAM * SEWARD (Integral evaluation for generally contracted gaussian basis sets)     Author: Roland Lindh, 1990

 Geometry written to block  2 of record 700

 Orientation using atomic masses  
 Molecule type: Asymmetric top,     Order of principal axis = 2
 Symmetry elements: X,Y
 Rotational constants:     279.5588240    768.2433733    439.4843550 GHz  (calculated with average atomic masses)

 Point group  C2v 



 ATOMIC COORDINATES

 NR  ATOM    CHARGE       X              Y              Z

   1  O       8.00    0.000000000    0.000000000   -0.128179340
   2  H       1.00    0.000000000    1.427261049    1.017318757
   3  H       1.00    0.000000000   -1.427261049    1.017318757

 Bond lengths in Bohr (Angstrom)

 1-2  1.830092892  1-3  1.830092892
     ( 0.968443452)     ( 0.968443452)

 Bond angles

  2-1-3  102.50000000

 NUCLEAR CHARGE:                   10
 NUMBER OF PRIMITIVE AOS:          41
 NUMBER OF SYMMETRY AOS:           40
 NUMBER OF CONTRACTIONS:           24   (  11A1  +   4B1  +   7B2  +   2A2  )
 NUMBER OF CORE ORBITALS:           1   (   1A1  +   0B1  +   0B2  +   0A2  )
 NUMBER OF VALENCE ORBITALS:        6   (   3A1  +   1B1  +   2B2  +   0A2  )


 NUCLEAR REPULSION ENERGY    9.09304695

 Eigenvalues of metric

         1 0.177E-01 0.521E-01 0.161E+00 0.223E+00 0.527E+00 0.986E+00 0.101E+01 0.129E+01
         2 0.183E+00 0.531E+00 0.110E+01 0.223E+01
         3 0.463E-01 0.991E-01 0.173E+00 0.672E+00 0.101E+01 0.117E+01 0.254E+01
         4 0.630E+00 0.132E+01


 Contracted 2-electron integrals neglected if value below      1.0D-14
 AO integral compression algorithm  1   Integral accuracy      1.0D-14

     0.786 MB (compressed) written to integral file (100.0%)

     Node minimum: 0.262 MB, node maximum: 0.262 MB


 NUMBER OF SORTED TWO-ELECTRON INTEGRALS:       4533.     BUFFER LENGTH:  32768
 NUMBER OF SEGMENTS:   1  SEGMENT LENGTH:       4533      RECORD LENGTH: 524288

 Memory used in sort:       0.56 MW

 SORT1 READ       19290. AND WROTE        4208. INTEGRALS IN      1 RECORDS. CPU TIME:     0.00 SEC, REAL TIME:     0.01 SEC
 SORT2 READ       12665. AND WROTE       13826. INTEGRALS IN      3 RECORDS. CPU TIME:     0.01 SEC, REAL TIME:     0.00 SEC

 Node minimum:        4366.  Node maximum:        4927. integrals

 OPERATOR DM      FOR CENTER  0  COORDINATES:    0.000000    0.000000    0.000000
1PROGRAM * RHF-SCF (CLOSED SHELL)       Authors: W. Meyer, H.-J. Werner


 NUMBER OF ELECTRONS:       5+    5-
 CONVERGENCE THRESHOLDS:    1.00E-10 (Density)    1.00E-11 (Energy)
 MAX. NUMBER OF ITERATIONS:       60
 INTERPOLATION TYPE:            DIIS
 INTERPOLATION STEPS:              2 (START)      1 (STEP)
 LEVEL SHIFTS:                  0.00 (CLOSED)  0.00 (OPEN) 

 Number of closed-shell orbitals:    5 (   3   1   1   0 )


 Molecular orbitals read from record     2100.2  Type=RHF/CANONICAL (state 1.1)

 Molecular orbital dump at record        2100.2

 ITERATION    DDIFF          GRAD             ENERGY        2-EL.EN.            DIPOLE MOMENTS         DIIS   ORB.
    1      0.000D+00      0.000D+00       -76.02584494     75.648338    0.00000    0.00000    0.82308    0    start
    2      0.000D+00      0.211D-02       -76.02598398     75.703204    0.00000    0.00000    0.82384    1    diag
    3      0.657D-02      0.434D-03       -76.02598963     75.676158    0.00000    0.00000    0.82395    2    diag
    4      0.134D-02      0.178D-03       -76.02599047     75.689398    0.00000    0.00000    0.82499    3    diag
    5      0.274D-03      0.299D-04       -76.02599051     75.688232    0.00000    0.00000    0.82506    4    diag
    6      0.630D-04      0.671D-05       -76.02599052     75.688289    0.00000    0.00000    0.82515    5    diag
    7      0.186D-04      0.187D-05       -76.02599052     75.688281    0.00000    0.00000    0.82517    6    diag
    8      0.612D-05      0.176D-06       -76.02599052     75.688283    0.00000    0.00000    0.82517    7    orth
    9      0.502D-06      0.247D-07       -76.02599052     75.688283    0.00000    0.00000    0.82517    8    diag
   10      0.663D-07      0.434D-08       -76.02599052     75.688283    0.00000    0.00000    0.82517    9    diag
   11      0.128D-07      0.384D-09       -76.02599052     75.688283    0.00000    0.00000    0.82517    9    diag
   12      0.108D-08      0.504D-10       -76.02599052     75.688283    0.00000    0.00000    0.82517    9    diag
   13      0.140D-09      0.570D-11       -76.02599052     75.688283    0.00000    0.00000    0.82517    9    diag
   14      0.140D-10      0.602D-12       -76.02599052     75.688283    0.00000    0.00000    0.82517    0    orth

 Final occupancy:   3   1   1   0

 !RHF STATE 1.1 Energy                -76.025990519159
 Nuclear energy                         9.09304695
 One-electron energy                 -122.96317877
 Two-electron energy                   37.84414130
 Virial quotient                       -1.00100895
 !RHF STATE 1.1 Dipole moment           0.00000000     0.00000000     0.82517358
 Dipole moment /Debye                   0.00000000     0.00000000     2.09724467

 Orbital energies:

         1.1          2.1          3.1          4.1          5.1
    -20.553505    -1.332670    -0.568622     0.183263     0.852779

         1.2          2.2          3.2
     -0.493102     1.199638     1.661447

         1.3          2.3          3.3
     -0.689548     0.254784     0.774731

         1.4          2.4
      1.480063     3.320427

 HOMO      1.2    -0.493102 =     -13.4180eV
 LUMO      4.1     0.183263 =       4.9869eV
 LUMO-HOMO         0.676366 =      18.4049eV


 **********************************************************************************************************************************
 DATASETS  * FILE   NREC   LENGTH (MB)   RECORD NAMES
              1      18       19.08       500      610      700      900      950      970     1000      129      960     1100   
                                          VAR    BASINP    GEOM    SYMINP    ZMAT    AOBASIS   BASIS     P2S    ABASIS      S 
                                         1400     1410     1200     1210     1080     1600     1650     1700   
                                           T        V       H0       H01     AOSYM     SMH    MOLCAS    OPER   

              2       5        0.39       700     1000      520     2100     5600   
                                         GEOM     BASIS   MCVARS     RHF     GINFO   

 PROGRAMS   *        TOTAL       RHF   CCSD(T)       RHF       INT
 CPU TIMES  *         1.21      0.12      0.04      0.01      0.19
 REAL TIME  *         1.85 SEC
 DISK USED  *        71.90 MB      
 SF USED    *         0.16 MB      
 GA USED    *         0.00 MB       (max)       0.00 MB       (current)
 **********************************************************************************************************************************


1PROGRAM * CCSD (Closed-shell coupled cluster)     Authors: C. Hampel, H.-J. Werner, 1991, M. Deegan, P.J. Knowles, 1992


 Convergence thresholds:  THRVAR = 1.00D-14  THRDEN = 1.00D-10

 CCSD(T)     terms to be evaluated (factor= 1.000)


 Number of core orbitals:           1 (   1   0   0   0 )
 Number of closed-shell orbitals:   4 (   2   1   1   0 )
 Number of external orbitals:      19 (   8   3   6   2 )

 Molecular orbitals read from record     2100.2  Type=RHF/CANONICAL (state 1.1)

 Number of N-1 electron functions:               4
 Number of N-2 electron functions:              10
 Number of singly external CSFs:                25
 Number of doubly external CSFs:               805
 Total number of CSFs:                         831

 Length of J-op  integral file:               0.00 MB
 Length of K-op  integral file:               0.01 MB
 Length of 3-ext integral record:             0.00 MB

 Memory could be reduced to 0.31 Mwords without degradation in triples

 Integral transformation finished. Total CPU:   0.00 sec, npass=  1  Memory used:   0.07 MW

 Reference energy:                    -76.02599052

 MP2 singlet pair energy:              -0.12628402
 MP2 triplet pair energy:              -0.07635373
 MP2 correlation energy:               -0.20263775
 MP2 total energy:                    -76.22862827

 SCS-MP2 correlation energy:           -0.19904981   (PS=  1.200000  PT=  0.333333)
[...]
  CCSD-T energy                       -76.241225297405
 !CCSD(T) total energy                -76.241281491723

 Timing summary (sec):

 STEP                 CPU(USER)    SYS     CPU(TOT)    WALL
 CCSD iterations         0.03      0.01      0.04      0.05

 Program statistics:

 Available memory in ccsd:               999998686
 Min. memory needed in ccsd:                 17202
 Max. memory used in ccsd:                   18488
 Max. memory used in cckext:                 48698 (12 integral passes)



 **********************************************************************************************************************************
 DATASETS  * FILE   NREC   LENGTH (MB)   RECORD NAMES
              1      21       19.65       500      610      700      702      900      950      970     1001      129      960   
                                          VAR    BASINP    GEOM     GEOM    SYMINP    ZMAT    AOBASIS   BASIS     P2S    ABASIS    
                                         1100     1400     1410     1200     1210     1080     1600     1650     1700     2100   
                                           S        T        V       H0       H01     AOSYM     SMH    MOLCAS    OPER      RHF  
                                         1380   
                                         JKOP   

              2       9        0.84       700     1000      520     2100     5600      701     5500      702     1001   
                                         GEOM     BASIS   MCVARS     RHF     GINFO    GEOM     HINFO    GEOM     BASIS   

 PROGRAMS   *        TOTAL   CCSD(T)      OPTG   CCSD(T)       RHF       INT
 CPU TIMES  *         9.23      0.06      3.66      0.04      0.01      0.19
 REAL TIME  *        12.67 SEC
 DISK USED  *        74.86 MB      
 SF USED    *         0.54 MB      
 GA USED    *         0.00 MB       (max)       0.00 MB       (current)
 **********************************************************************************************************************************

 Numerical CCSD(T) hessian completed. CPU-time:     6.23 sec, Elapsed:     6.31 sec

 CCSD(T) hessian saved to record  5300.2

 FREQUENCIES * CALCULATION OF HARMONIC VIBRATIONAL SPECTRA FOR CCSD(T)


 Permanent Dipole Moment [debye]
   1-  3    0.000000    0.000000    0.000000

 Dipole Moment Norm    0.0000000 [debye]

 Dipole Moment Derivatives [debye/ang]
                   1             2             3             4             5             6             7             8
         1     0.0000000     0.0000000     0.0000000     0.0000000     0.0000000     0.0000000     0.0000000     0.0000000
         2     0.0000000     0.0000000     0.0000000     0.0000000     0.0000000     0.0000000     0.0000000     0.0000000
         3     0.0000000     0.0000000     0.0000000     0.0000000     0.0000000     0.0000000     0.0000000     0.0000000
                   9
         1     0.0000000
         2     0.0000000
         3     0.0000000

 Projecting out rotations and translations

   Low Vibration      Wavenumber
        Nr             [1/cm] 
        1                0.00
        2                0.00
        3                0.00
        4                0.00
        5                0.00
        6                0.00

     Vibration        Wavenumber
        Nr             [1/cm] 
        1             1689.45
        2             3821.20
        3             3927.18

 FREQUENCIES * CALCULATION OF NORMAL MODES FOR CCSD(T)


 Atomic Coordinates

  Nr  Atom  Charge       X              Y              Z

   1   O     8.00    0.000000000    0.000000000   -0.128707778
   2   H     1.00    0.000000000    1.418274496    1.021512804
   3   H     1.00    0.000000000   -1.418274496    1.021512804

 Frequencies dumped to record   5400.2

 Gradient norm at reference geometry: 0.41357D-04

 Normal Modes

                              1 A1        2 A1        3 B2 
 Wavenumbers [cm-1]         1689.45     3821.20     3927.18
 Intensities [km/mol]          0.00        0.00        0.00
 Intensities [relative]        0.00        0.00        0.00
           OX1              0.00000     0.00000     0.00000
           OY1              0.00000    -0.00000    -0.06645
           OZ1             -0.06719    -0.04980    -0.00000
           HX2              0.00000    -0.00000    -0.00000
           HY2             -0.41940     0.56583     0.52736
           HZ2              0.53324     0.39523     0.42769
           HX3             -0.00000     0.00000    -0.00000
           HY3              0.41940    -0.56583     0.52736
           HZ3              0.53324     0.39523    -0.42769


 Normal Modes of low/zero frequencies

                                  1           2           3           4           5
 Wavenumbers [cm-1]            0.00        0.00        0.00        0.00        0.00
 Intensities [km/mol]          0.00        0.00        0.00        0.00        0.00
 Intensities [relative]        0.00        0.00        0.00        0.00        0.00
           OX1              0.00000     0.00000     0.15243     0.19816     0.00000
           OY1              0.17211     0.11335     0.00000     0.00000     0.08857
           OZ1              0.00641     0.06320     0.00000     0.00000     0.10621
           HX2             -0.46893     0.18137     0.55826    -0.42943     0.41715
           HY2              0.19900    -0.28668     0.00000     0.00000     0.30081
           HZ2             -0.02675     0.55646     0.00000     0.00000    -0.15549
           HX3              0.46893    -0.18137     0.55826    -0.42943    -0.41715
           HY3              0.19900    -0.28668     0.00000     0.00000     0.30081
           HZ3              0.03958    -0.43006     0.00000     0.00000     0.36792

                                  6
 Wavenumbers [cm-1]            0.00
 Intensities [km/mol]          0.00
 Intensities [relative]        0.00
           OX1              0.00000
           OY1             -0.08816
           OZ1              0.20048
           HX2             -0.26318
           HY2             -0.07536
           HZ2              0.18469
           HX3              0.26318
           HY3             -0.07536
           HZ3              0.21627


 Zero point energy:  0.02150096 [H]     4718.92 [1/CM]       56.45 [KJ/MOL]

 Recomputing wavefunction at initial geometry


 Recomputing integrals since geometry and symmetry changed


 Using spherical harmonics

 Library entry O      S cc-pVDZ              selected for orbital group  1
 Library entry O      P cc-pVDZ              selected for orbital group  1
 Library entry O      D cc-pVDZ              selected for orbital group  1
 Library entry H      S cc-pVDZ              selected for orbital group  2
 Library entry H      P cc-pVDZ              selected for orbital group  2

1PROGRAM * SEWARD (Integral evaluation for generally contracted gaussian basis sets)     Author: Roland Lindh, 1990

 Geometry written to block  1 of record 700

 Orientation using atomic masses  
 Molecule type: Asymmetric top,     Order of principal axis = 2
 Symmetry elements: X,Y
 Rotational constants:     280.9575715    761.9479377    445.0713720 GHz  (calculated with average atomic masses)

 Point group  C2v 



 ATOMIC COORDINATES

 NR  ATOM    CHARGE       X              Y              Z

   1  O       8.00    0.000000000    0.000000000   -0.128707778
   2  H       1.00    0.000000000    1.418274496    1.021512804
   3  H       1.00    0.000000000   -1.418274496    1.021512804

 Bond lengths in Bohr (Angstrom)

 1-2  1.826064055  1-3  1.826064055
     ( 0.966311484)     ( 0.966311484)

 Bond angles

  2-1-3  101.91589677

 NUCLEAR CHARGE:                   10
 NUMBER OF PRIMITIVE AOS:          41
 NUMBER OF SYMMETRY AOS:           40
 NUMBER OF CONTRACTIONS:           24   (  11A1  +   4B1  +   7B2  +   2A2  )
 NUMBER OF CORE ORBITALS:           1   (   1A1  +   0B1  +   0B2  +   0A2  )
 NUMBER OF VALENCE ORBITALS:        6   (   3A1  +   1B1  +   2B2  +   0A2  )

 SYMMETRY CHANGED: INITIALIZING OCCUPATION


 NUCLEAR REPULSION ENERGY    9.11455571

 Eigenvalues of metric

         1 0.176E-01 0.518E-01 0.160E+00 0.224E+00 0.526E+00 0.986E+00 0.101E+01 0.129E+01
         2 0.183E+00 0.528E+00 0.111E+01 0.224E+01
         3 0.462E-01 0.988E-01 0.172E+00 0.668E+00 0.101E+01 0.116E+01 0.254E+01
         4 0.629E+00 0.132E+01


 Contracted 2-electron integrals neglected if value below      1.0D-14
 AO integral compression algorithm  1   Integral accuracy      1.0D-14

     0.786 MB (compressed) written to integral file (100.0%)

     Node minimum: 0.262 MB, node maximum: 0.262 MB


 NUMBER OF SORTED TWO-ELECTRON INTEGRALS:       4533.     BUFFER LENGTH:  32768
 NUMBER OF SEGMENTS:   1  SEGMENT LENGTH:       4533      RECORD LENGTH: 524288

 Memory used in sort:       0.56 MW

 SORT1 READ       19290. AND WROTE        4208. INTEGRALS IN      1 RECORDS. CPU TIME:     0.00 SEC, REAL TIME:     0.01 SEC
 SORT2 READ       12665. AND WROTE       13826. INTEGRALS IN      3 RECORDS. CPU TIME:     0.01 SEC, REAL TIME:     0.00 SEC

 Node minimum:        4366.  Node maximum:        4927. integrals

 OPERATOR DM      FOR CENTER  0  COORDINATES:    0.000000    0.000000    0.000000
1PROGRAM * RHF-SCF (CLOSED SHELL)       Authors: W. Meyer, H.-J. Werner


 NUMBER OF ELECTRONS:       5+    5-
 CONVERGENCE THRESHOLDS:    1.00E-10 (Density)    1.00E-11 (Energy)
 MAX. NUMBER OF ITERATIONS:       60
 INTERPOLATION TYPE:            DIIS
 INTERPOLATION STEPS:              2 (START)      1 (STEP)
 LEVEL SHIFTS:                  0.00 (CLOSED)  0.00 (OPEN) 



 Molecular orbitals read from record     2100.2  Type=RHF/CANONICAL (state 1.1)

 Molecular orbital dump at record        2100.2

 ITERATION    DDIFF          GRAD             ENERGY        2-EL.EN.            DIPOLE MOMENTS         DIIS   ORB.
    1      0.000D+00      0.000D+00       -76.02611143     75.717933    0.00000    0.00000    0.82779    0    start
    2      0.000D+00      0.200D-12       -76.02611143     75.717933    0.00000    0.00000    0.82779    0    orth

 Final occupancy:   3   1   1   0

 !RHF STATE 1.1 Energy                -76.026111428644
 Nuclear energy                         9.11455571
 One-electron energy                 -122.99963340
 Two-electron energy                   37.85896626
 Virial quotient                       -1.00089422
 !RHF STATE 1.1 Dipole moment           0.00000000     0.00000000     0.82779210
 Dipole moment /Debye                   0.00000000     0.00000000     2.10389986

 Orbital energies:

         1.1          2.1          3.1          4.1          5.1
    -20.553442    -1.334199    -0.570220     0.183495     0.857305

         1.2          2.2          3.2
     -0.493458     1.199541     1.658435

         1.3          2.3          3.3
     -0.689531     0.255177     0.774332

         1.4          2.4
      1.482629     3.320296

 HOMO      1.2    -0.493458 =     -13.4277eV
 LUMO      4.1     0.183495 =       4.9932eV
 LUMO-HOMO         0.676953 =      18.4208eV


 **********************************************************************************************************************************
 DATASETS  * FILE   NREC   LENGTH (MB)   RECORD NAMES
              1      18       19.08       500      610      700      900      950      970     1000      129      960     1100   
                                          VAR    BASINP    GEOM    SYMINP    ZMAT    AOBASIS   BASIS     P2S    ABASIS      S 
                                         1400     1410     1200     1210     1080     1600     1650     1700   
                                           T        V       H0       H01     AOSYM     SMH    MOLCAS    OPER   

              2       8        0.39       700     1000      520     2100     5600     5300     5400     5450   
                                         GEOM     BASIS   MCVARS     RHF     GINFO    HESS     FREQ     NMOD   

 PROGRAMS   *        TOTAL       RHF      OPTG   CCSD(T)       RHF       INT
 CPU TIMES  *         9.37      0.13      3.66      0.04      0.01      0.19
 REAL TIME  *        12.84 SEC
 DISK USED  *        74.86 MB      
 SF USED    *         0.54 MB      
 GA USED    *         0.00 MB       (max)       0.00 MB       (current)
 **********************************************************************************************************************************


1PROGRAM * CCSD (Closed-shell coupled cluster)     Authors: C. Hampel, H.-J. Werner, 1991, M. Deegan, P.J. Knowles, 1992


 Convergence thresholds:  THRVAR = 1.00D-14  THRDEN = 1.00D-10

 CCSD(T)     terms to be evaluated (factor= 1.000)


 Number of core orbitals:           1 (   1   0   0   0 )
 Number of closed-shell orbitals:   4 (   2   1   1   0 )
 Number of external orbitals:      19 (   8   3   6   2 )

 Molecular orbitals read from record     2100.2  Type=RHF/CANONICAL (state 1.1)

 Number of N-1 electron functions:               4
 Number of N-2 electron functions:              10
 Number of singly external CSFs:                25
 Number of doubly external CSFs:               805
 Total number of CSFs:                         831

 Length of J-op  integral file:               0.00 MB
 Length of K-op  integral file:               0.01 MB
 Length of 3-ext integral record:             0.00 MB

 Memory could be reduced to 0.30 Mwords without degradation in triples

 Integral transformation finished. Total CPU:   0.00 sec, npass=  1  Memory used:   0.07 MW

 Reference energy:                    -76.02611143

 MP2 singlet pair energy:              -0.12620470
 MP2 triplet pair energy:              -0.07634641
 MP2 correlation energy:               -0.20255111
 MP2 total energy:                    -76.22866254

 SCS-MP2 correlation energy:           -0.19895007   (PS=  1.200000  PT=  0.333333)
 SCS-MP2 total energy:                -76.22506150

 ITER.      SQ.NORM     CORR.ENERGY   TOTAL ENERGY   ENERGY CHANGE        DEN1      VAR(S)    VAR(P)  DIIS     TIME  TIME/IT
   1      1.05339687    -0.21106314   -76.23717456    -0.00851203    -0.00487131  0.29D-03  0.69D-03  1  1     0.00     0.00
   2      1.05663696    -0.21201153   -76.23812296    -0.00094839    -0.00393867  0.54D-05  0.60D-04  2  2     0.00     0.00
   3      1.05745401    -0.21208834   -76.23819977    -0.00007681    -0.00061193  0.21D-05  0.24D-05  3  3     0.00     0.00
   4      1.05764042    -0.21209139   -76.23820282    -0.00000305    -0.00010077  0.13D-06  0.14D-06  4  4     0.00     0.00
   5      1.05767528    -0.21208989   -76.23820132     0.00000150    -0.00001600  0.34D-07  0.78D-08  5  5     0.01     0.00
   6      1.05768011    -0.21208982   -76.23820125     0.00000007     0.00000037  0.43D-08  0.84D-09  6  6     0.01     0.00
   7      1.05768284    -0.21208976   -76.23820119     0.00000006    -0.00000027  0.16D-09  0.70D-10  6  1     0.01     0.00
   8      1.05768322    -0.21208971   -76.23820114     0.00000005     0.00000007  0.43D-11  0.50D-11  6  2     0.01     0.00
   9      1.05768333    -0.21208970   -76.23820113     0.00000001    -0.00000006  0.10D-12  0.31D-12  6  3     0.01     0.00
  10      1.05768336    -0.21208970   -76.23820113     0.00000000    -0.00000002  0.21D-14  0.89D-14  6  4     0.01     0.00
  11      1.05768336    -0.21208970   -76.23820113     0.00000000    -0.00000000  0.18D-15  0.34D-15  6  6     0.02     0.00
  12      1.05768336    -0.21208970   -76.23820113     0.00000000    -0.00000000  0.28D-17  0.13D-16  6  5     0.02     0.00

 Norm of t1 vector:      0.02424568      S-energy:     0.00000000      T1 diagnostic:  0.00606142
                                                                       D1 diagnostic:  0.01141348

 Doubles amplitudes (print threshold =  0.500E-01):

         I         J         SYM. A    SYM. B    A         B      T(IJ, AB)

         3         3         2         2         1         1     -0.05142890

 Total CPU time for triples:      0.00 sec


 RESULTS
 =======

  Reference energy                    -76.026111428644
  CCSD singlet pair energy             -0.144045873823
  CCSD triplet pair energy             -0.068043826615
  CCSD correlation energy              -0.212089700432

  Triples (T) contribution             -0.003103896657
  Total correlation energy             -0.215193597089

  CCSD total energy                   -76.238201129076
  CCSD[T] energy                      -76.241393739468
  CCSD-T energy                       -76.241248120680
 !CCSD(T) total energy                -76.241305025733

 Timing summary (sec):

 STEP                 CPU(USER)    SYS     CPU(TOT)    WALL
 CCSD iterations         0.02      0.00      0.02      0.03

 Program statistics:

 Available memory in ccsd:               999999836
 Min. memory needed in ccsd:                  5661
 Max. memory used in ccsd:                    6126
 Max. memory used in cckext:                 38485 (12 integral passes)



 **********************************************************************************************************************************
 DATASETS  * FILE   NREC   LENGTH (MB)   RECORD NAMES
              1      19       19.14       500      610      700      900      950      970     1000      129      960     1100   
                                          VAR    BASINP    GEOM    SYMINP    ZMAT    AOBASIS   BASIS     P2S    ABASIS      S 
                                         1400     1410     1200     1210     1080     1600     1650     1700     1380   
                                           T        V       H0       H01     AOSYM     SMH    MOLCAS    OPER     JKOP   

              2       8        0.39       700     1000      520     2100     5600     5300     5400     5450   
                                         GEOM     BASIS   MCVARS     RHF     GINFO    HESS     FREQ     NMOD   

 PROGRAMS   *        TOTAL   CCSD(T)      OPTG   CCSD(T)       RHF       INT
 CPU TIMES  *         9.42      0.05      3.66      0.04      0.01      0.19
 REAL TIME  *        12.90 SEC
 DISK USED  *        74.86 MB      
 SF USED    *         0.54 MB      
 GA USED    *         0.00 MB       (max)       0.00 MB       (current)
 **********************************************************************************************************************************


 **********************************************************************************************************************************
 DATASETS  * FILE   NREC   LENGTH (MB)   RECORD NAMES
              1      19       19.14       500      610      700      900      950      970     1000      129      960     1100   
                                          VAR    BASINP    GEOM    SYMINP    ZMAT    AOBASIS   BASIS     P2S    ABASIS      S 
                                         1400     1410     1200     1210     1080     1600     1650     1700     1380   
                                           T        V       H0       H01     AOSYM     SMH    MOLCAS    OPER     JKOP   

              2       8        0.39       700     1000      520     2100     5600     5300     5400     5450   
                                         GEOM     BASIS   MCVARS     RHF     GINFO    HESS     FREQ     NMOD   

 PROGRAMS   *        TOTAL      FREQ      OPTG   CCSD(T)       RHF       INT
 CPU TIMES  *         9.42      5.41      3.66      0.04      0.01      0.19
 REAL TIME  *        12.90 SEC
 DISK USED  *        74.86 MB      
 SF USED    *         0.54 MB      
 GA USED    *         0.00 MB       (max)       0.00 MB       (current)
 **********************************************************************************************************************************

 CCSD(T)/cc-pVDZ energy=    -76.241305025733

   OPTG(CCSD(T))        CCSD(T)         RHF-SCF 
    -76.24130503    -76.24071023    -76.02473505
 **********************************************************************************************************************************
 Variable memory released
