
 Primary working directories    : /scratch/kmoore
 Secondary working directories  : /scratch/kmoore
 Wavefunction directory         : /scratch/kmoore/
 Main file repository           : /scratch/kmoore/

 SHA1      : b6b3a4772808bb2d43777f23454e145ddfe12dc3
 NAME      : 2015.1.1
 ARCHNAME  : linux/x86_64
 FC        : /soft/mvapich2/2.2b_psm/intel-15.0/bin/mpif90
 BLASLIB   : -L/soft/intel/15.0.1/composer_xe_2015.0.090/mkl/lib/intel64 -lmkl_intel_ilp64 -lmkl_sequential -lmkl_core
 id        : anlgov

 Nodes     nprocs
 b450         3
 Number of processes for MPI-2 version of Molpro:   nprocs(total)=    4   nprocs(compute)=    3   nprocs(helper)=    1

 Using customized tuning parameters: mindgm=1; mindgv=20; mindgc=4; mindgr=1; noblas=0; minvec=7
 default implementation of scratch files=sf  

 memory,500,m
 GTHRESH,energy=1d-8
 
 nosym
 angstrom
 geometry = {
 P       -3.1360231087      2.8848408779      0.0690445889
 H       -1.7208304867      2.9627320290     -0.2498054586
 H       -3.4530234409      2.0776094780     -1.0964556461
 H       -3.4530271617      4.1385081536     -0.5930198602
 }
 
 basis=cc-pVTZ
 {rhf}
 {ccsd(t)}
 {optg}
 {freq}
 

 Variables initialized (889), CPU time= 0.02 sec
 Commands  initialized (702), CPU time= 0.01 sec, 572 directives.
 Default parameters read. Elapsed time= 0.14 sec

 Checking input...
 Passed
1


                                         ***  PROGRAM SYSTEM MOLPRO  ***
                                       Copyright, TTI GmbH Stuttgart, 2015
                                    Version 2015.1 linked Jan  8 2016 07:59:11


 **********************************************************************************************************************************
 LABEL *                                                                                 
  64 bit mpp version                                                                     DATE: 13-Dec-18          TIME: 13:21:42  
 **********************************************************************************************************************************

 SHA1:             b6b3a4772808bb2d43777f23454e145ddfe12dc3
 **********************************************************************************************************************************

 THRESHOLDS:

 ZERO    =  1.00D-12  ONEINT  =  1.00D-12  TWOINT  =  1.00D-11  PREFAC  =  1.00D-14  LOCALI  =  1.00D-09  EORDER  =  1.00D-04
 ENERGY  =  1.00D-08  ETEST   =  0.00D+00  EDENS   =  0.00D+00  THRDEDEF=  1.00D-06  GRADIENT=  1.00D-02  STEP    =  1.00D-03
 ORBITAL =  1.00D-05  CIVEC   =  1.00D-05  COEFF   =  1.00D-04  PRINTCI =  5.00D-02  PUNCHCI =  9.90D+01  OPTGRAD =  3.00D-04
 OPTENERG=  1.00D-06  OPTSTEP =  3.00D-04  THRGRAD =  1.00D-10  COMPRESS=  1.00D-11  VARMIN  =  1.00D-07  VARMAX  =  1.00D-03
 THRDOUB =  0.00D+00  THRDIV  =  1.00D-05  THRRED  =  1.00D-07  THRPSP  =  1.00D+00  THRDC   =  1.00D-10  THRCS   =  1.00D-10
 THRNRM  =  1.00D-08  THREQ   =  0.00D+00  THRDE   =  1.00D+00  THRREF  =  1.00D-05  SPARFAC =  1.00D+00  THRDLP  =  1.00D-07
 THRDIA  =  1.00D-10  THRDLS  =  1.00D-07  THRGPS  =  0.00D+00  THRKEX  =  0.00D+00  THRDIS  =  2.00D-01  THRVAR  =  1.00D-10
 THRLOC  =  1.00D-06  THRGAP  =  1.00D-06  THRLOCT = -1.00D+00  THRGAPT = -1.00D+00  THRORB  =  1.00D-06  THRMLTP =  0.00D+00
 THRCPQCI=  1.00D-10  KEXTA   =  0.00D+00  THRCOARS=  0.00D+00  SYMTOL  =  1.00D-06  GRADTOL =  1.00D-06  THROVL  =  1.00D-08
 THRORTH =  1.00D-08  GRID    =  1.00D-06  GRIDMAX =  1.00D-03  DTMAX   =  0.00D+00  THROCCDE=  1.00D-01  THROCCDE=  1.00D-01



 Variable memory set to  500000000 words,  buffer space   230000 words

 ZSYMEL=NOSYM
 ZUNIT=ANG
 

Geometry recognized as XYZ

 SETTING BASIS          =    CC-PVTZ


 Recomputing integrals since basis changed


 Using spherical harmonics

 Library entry P      S cc-pVTZ              selected for orbital group  1
 Library entry P      P cc-pVTZ              selected for orbital group  1
 Library entry P      D cc-pVTZ              selected for orbital group  1
 Library entry P      F cc-pVTZ              selected for orbital group  1
 Library entry H      S cc-pVTZ              selected for orbital group  2
 Library entry H      P cc-pVTZ              selected for orbital group  2
 Library entry H      D cc-pVTZ              selected for orbital group  2

1PROGRAM * SEWARD (Integral evaluation for generally contracted gaussian basis sets)     Author: Roland Lindh, 1990

 Geometry written to block  1 of record 700


 Point group  C1  



 ATOMIC COORDINATES

 NR  ATOM    CHARGE       X              Y              Z

   1  P      15.00   -5.926224796    5.451559172    0.130475363
   2  H       1.00   -3.251898327    5.598752115   -0.472063901
   3  H       1.00   -6.525268605    3.926112907   -2.072000879
   4  H       1.00   -6.525275636    7.820646975   -1.120645122

 Bond lengths in Bohr (Angstrom)

 1-2  2.745312622  1-3  2.745312622  1-4  2.745312622
     ( 1.452756876)     ( 1.452756876)     ( 1.452756877)

 Bond angles

  2-1-3   93.80004554   2-1-4   93.80004607   3-1-4   93.80004608

 NUCLEAR CHARGE:                   18
 NUMBER OF PRIMITIVE AOS:         115
 NUMBER OF SYMMETRY AOS:          107
 NUMBER OF CONTRACTIONS:           76   (  76A   )
 NUMBER OF CORE ORBITALS:           5   (   5A   )
 NUMBER OF VALENCE ORBITALS:        7   (   7A   )


 NUCLEAR REPULSION ENERGY   17.13988298

 Eigenvalues of metric

         1 0.186E-02 0.288E-02 0.288E-02 0.412E-02 0.163E-01 0.163E-01 0.177E-01 0.282E-01


 Contracted 2-electron integrals neglected if value below      1.0D-12
 AO integral compression algorithm  1   Integral accuracy      1.0D-12

     27.001 MB (compressed) written to integral file ( 63.9%)

     Node minimum: 6.816 MB, node maximum: 11.796 MB


 NUMBER OF SORTED TWO-ELECTRON INTEGRALS:    1427400.     BUFFER LENGTH:  32768
 NUMBER OF SEGMENTS:   1  SEGMENT LENGTH:    1427400      RECORD LENGTH: 524288

 Memory used in sort:       1.98 MW

 SORT1 READ     5228810. AND WROTE     1369882. INTEGRALS IN      4 RECORDS. CPU TIME:     0.16 SEC, REAL TIME:     0.21 SEC
 SORT2 READ     4108946. AND WROTE     4282201. INTEGRALS IN     96 RECORDS. CPU TIME:     0.04 SEC, REAL TIME:     0.08 SEC

 Node minimum:     1426425.  Node maximum:     1428376. integrals

 OPERATOR DM      FOR CENTER  0  COORDINATES:    0.000000    0.000000    0.000000


 **********************************************************************************************************************************
 DATASETS  * FILE   NREC   LENGTH (MB)   RECORD NAMES
              1      18       19.35       500      610      700      900      950      970     1000      129      960     1100   
                                          VAR    BASINP    GEOM    SYMINP    ZMAT    AOBASIS   BASIS     P2S    ABASIS      S 
                                         1400     1410     1200     1210     1080     1600     1650     1700   
                                           T        V       H0       H01     AOSYM     SMH    MOLCAS    OPER   

 PROGRAMS   *        TOTAL       INT
 CPU TIMES  *         0.89      0.70
 REAL TIME  *         1.53 SEC
 DISK USED  *        72.63 MB      
 GA USED    *         0.00 MB       (max)       0.00 MB       (current)
 **********************************************************************************************************************************

1PROGRAM * RHF-SCF (CLOSED SHELL)       Authors: W. Meyer, H.-J. Werner


 NUMBER OF ELECTRONS:       9+    9-    SPACE SYMMETRY=1    SPIN SYMMETRY: Singlet 
 CONVERGENCE THRESHOLDS:    1.00E-06 (Density)    1.00E-09 (Energy)
 MAX. NUMBER OF ITERATIONS:       60
 INTERPOLATION TYPE:            DIIS
 INTERPOLATION STEPS:              2 (START)      1 (STEP)
 LEVEL SHIFTS:                  0.00 (CLOSED)  0.00 (OPEN) 



 Orbital guess generated from atomic densities. Full valence occupancy:   12

 Molecular orbital dump at record        2100.2

 Initial occupancy:   9

 ITERATION    DDIFF          GRAD             ENERGY        2-EL.EN.            DIPOLE MOMENTS         DIIS   ORB.
    1      0.000D+00      0.000D+00      -342.46876751    295.906503    0.17618    0.11825   -0.48407    0    start
    2      0.000D+00      0.317D-02      -342.48323861    295.692742    0.06750    0.04531   -0.18548    1    diag
    3      0.513D-02      0.106D-02      -342.48503161    295.834676    0.08687    0.05831   -0.23870    2    diag
    4      0.137D-02      0.338D-03      -342.48527608    295.764219    0.08177    0.05489   -0.22468    3    diag
    5      0.536D-03      0.663D-04      -342.48528435    295.775216    0.08173    0.05486   -0.22456    4    diag
    6      0.139D-03      0.129D-04      -342.48528459    295.770570    0.08171    0.05485   -0.22452    5    diag
    7      0.268D-04      0.296D-05      -342.48528460    295.770893    0.08173    0.05486   -0.22456    6    diag
    8      0.902D-05      0.306D-06      -342.48528460    295.770896    0.08173    0.05486   -0.22456    7    diag
    9      0.872D-06      0.448D-07      -342.48528460    295.770894    0.08173    0.05486   -0.22456    0    orth

 Final occupancy:   9

 !RHF STATE 1.1 Energy               -342.485284601306
 Nuclear energy                        17.13988298
 One-electron energy                 -507.51061468
 Two-electron energy                  147.88544710
 Virial quotient                       -1.00043619
 !RHF STATE 1.1 Dipole moment           0.08173047     0.05485681    -0.22456493
 Dipole moment /Debye                   0.20772452     0.13942297    -0.57074972

 Orbital energies:

         1.1          2.1          3.1          4.1          5.1          6.1          7.1          8.1          9.1         10.1
    -79.953104    -7.494269    -5.387569    -5.387569    -5.386691    -0.845161    -0.513921    -0.513921    -0.387656     0.135028

        11.1
      0.148487

 HOMO      9.1    -0.387656 =     -10.5487eV
 LUMO     10.1     0.135028 =       3.6743eV
 LUMO-HOMO         0.522684 =      14.2230eV


 **********************************************************************************************************************************
 DATASETS  * FILE   NREC   LENGTH (MB)   RECORD NAMES
              1      18       19.35       500      610      700      900      950      970     1000      129      960     1100   
                                          VAR    BASINP    GEOM    SYMINP    ZMAT    AOBASIS   BASIS     P2S    ABASIS      S 
                                         1400     1410     1200     1210     1080     1600     1650     1700   
                                           T        V       H0       H01     AOSYM     SMH    MOLCAS    OPER   

              2       4        0.54       700     1000      520     2100   
                                         GEOM     BASIS   MCVARS     RHF  

 PROGRAMS   *        TOTAL       RHF       INT
 CPU TIMES  *         1.24      0.35      0.70
 REAL TIME  *         1.98 SEC
 DISK USED  *       133.56 MB      
 SF USED    *         0.02 MB      
 GA USED    *         0.00 MB       (max)       0.00 MB       (current)
 **********************************************************************************************************************************


1PROGRAM * CCSD (Closed-shell coupled cluster)     Authors: C. Hampel, H.-J. Werner, 1991, M. Deegan, P.J. Knowles, 1992


 Convergence thresholds:  THRVAR = 1.00D-12  THRDEN = 1.00D-08

 CCSD(T)     terms to be evaluated (factor= 1.000)


 Number of core orbitals:           5 (   5 )
 Number of closed-shell orbitals:   4 (   4 )
 Number of external orbitals:      67 (  67 )

 Molecular orbitals read from record     2100.2  Type=RHF/CANONICAL (state 1.1)

 Number of N-1 electron functions:               4
 Number of N-2 electron functions:              10
 Number of singly external CSFs:               268
 Number of doubly external CSFs:             36046
 Total number of CSFs:                       36315

 Length of J-op  integral file:               0.00 MB
 Length of K-op  integral file:               0.40 MB
 Length of 3-ext integral record:             0.00 MB

 Memory could be reduced to 2.38 Mwords without degradation in triples

 Integral transformation finished. Total CPU:   0.11 sec, npass=  1  Memory used:   1.36 MW

 Reference energy:                   -342.48528460

 MP2 singlet pair energy:              -0.12893235
 MP2 triplet pair energy:              -0.04141316
 MP2 correlation energy:               -0.17034551
 MP2 total energy:                   -342.65563011

 SCS-MP2 correlation energy:           -0.18048701   (PS=  1.200000  PT=  0.333333)
 SCS-MP2 total energy:               -342.66577161

 ITER.      SQ.NORM     CORR.ENERGY   TOTAL ENERGY   ENERGY CHANGE        DEN1      VAR(S)    VAR(P)  DIIS     TIME  TIME/IT
   1      1.09391493    -0.19675355  -342.68203816    -0.02640805    -0.01880644  0.73D-03  0.19D-02  1  1     0.19     0.09
   2      1.10684369    -0.19901232  -342.68429692    -0.00225876    -0.00861057  0.27D-04  0.13D-03  2  2     0.25     0.07
   3      1.10957473    -0.19905459  -342.68433919    -0.00004227    -0.00099458  0.12D-04  0.12D-04  3  3     0.30     0.08
   4      1.11063733    -0.19907424  -342.68435884    -0.00001966    -0.00022802  0.14D-05  0.11D-05  4  4     0.38     0.10
   5      1.11096407    -0.19907154  -342.68435614     0.00000271    -0.00007305  0.13D-06  0.11D-06  5  5     0.52     0.11
   6      1.11101975    -0.19906634  -342.68435094     0.00000519    -0.00000687  0.21D-07  0.91D-08  6  6     0.60     0.11
   7      1.11103336    -0.19906627  -342.68435087     0.00000008    -0.00000146  0.25D-08  0.87D-09  6  1     0.71     0.12
   8      1.11103392    -0.19906633  -342.68435093    -0.00000007     0.00000034  0.36D-09  0.11D-09  6  2     0.75     0.11
   9      1.11103464    -0.19906632  -342.68435092     0.00000001    -0.00000019  0.30D-10  0.10D-10  6  3     0.79     0.11
  10      1.11103443    -0.19906634  -342.68435094    -0.00000002     0.00000004  0.14D-11  0.11D-11  6  4     0.84     0.11
  11      1.11103443    -0.19906635  -342.68435095    -0.00000001    -0.00000001  0.69D-13  0.10D-12  6  5     1.02     0.12
  12      1.11103444    -0.19906635  -342.68435095    -0.00000000    -0.00000001  0.38D-14  0.11D-13  6  6     1.05     0.12

 Norm of t1 vector:      0.05207656      S-energy:     0.00000000      T1 diagnostic:  0.01301914
                                                                       D1 diagnostic:  0.02121514


 Total CPU time for triples:      0.15 sec


 RESULTS
 =======

  Reference energy                   -342.485284601306
  CCSD singlet pair energy             -0.156272621955
  CCSD triplet pair energy             -0.042793727087
  CCSD correlation energy              -0.199066347941

  Triples (T) contribution             -0.006803797370
  Total correlation energy             -0.205870145312

  CCSD total energy                  -342.684350949248
  CCSD[T] energy                     -342.691334901234
  CCSD-T energy                      -342.691089086948
 !CCSD(T) total energy               -342.691154746618

 Timing summary (sec):

 STEP                 CPU(USER)    SYS     CPU(TOT)    WALL
 Transformation          0.13      0.02      0.15      0.23
 CCSD iterations         0.92      0.07      0.99      1.44
 Triples                 0.15      0.00      0.15      0.15

 Program statistics:

 Available memory in ccsd:               499999836
 Min. memory needed in ccsd:                180702
 Max. memory used in ccsd:                  202452
 Max. memory used in cckext:                177554 (12 integral passes)



 **********************************************************************************************************************************
 DATASETS  * FILE   NREC   LENGTH (MB)   RECORD NAMES
              1      19       25.03       500      610      700      900      950      970     1000      129      960     1100   
                                          VAR    BASINP    GEOM    SYMINP    ZMAT    AOBASIS   BASIS     P2S    ABASIS      S 
                                         1400     1410     1200     1210     1080     1600     1650     1700     1380   
                                           T        V       H0       H01     AOSYM     SMH    MOLCAS    OPER     JKOP   

              2       4        0.54       700     1000      520     2100   
                                         GEOM     BASIS   MCVARS     RHF  

 PROGRAMS   *        TOTAL   CCSD(T)       RHF       INT
 CPU TIMES  *         2.48      1.23      0.35      0.70
 REAL TIME  *         3.87 SEC
 DISK USED  *       143.20 MB      
 SF USED    *        10.16 MB      
 GA USED    *         0.00 MB       (max)       0.00 MB       (current)
 **********************************************************************************************************************************


 PROGRAM * OPT (Geometry optimization)     Authors: F. Eckert and H.-J. Werner


 BFGS update of hessian

 Running default procedure: RHF-SCF000  CCSD(T)

 Geometry optimization using default procedure for command CCSD(T)

 Geometry written to block  1 of record 700
 

 Generated   4 symmetrical displacements

 Number of displacements for numerical gradient:      8

 Starting numerical gradient for CCSD(T)
 Starting task   1   Incrementing displacement  1 by  1.   CPU=    0.00 sec, Elapsed=    0.00 sec


 Recomputing integrals since geometry changed

1PROGRAM * SEWARD (Integral evaluation for generally contracted gaussian basis sets)     Author: Roland Lindh, 1990

 Geometry written to block  1 of record 700


 Point group  C1  



 ATOMIC COORDINATES

 NR  ATOM    CHARGE       X              Y              Z

   1  P      15.00   -5.924626544    5.448561424    0.130324757
   2  H       1.00   -3.250222439    5.603772475   -0.469440605
   3  H       1.00   -6.530955494    3.927353371   -2.072975920
   4  H       1.00   -6.522862887    7.817383900   -1.122142770

 Bond lengths in Bohr (Angstrom)

 1-2  2.745222445  1-3  2.745221778  1-4  2.745520270
     ( 1.452709157)     ( 1.452708804)     ( 1.452866759)

 Bond angles

  2-1-3   94.08011611   2-1-4   93.65953192   3-1-4   93.66036764

 NUCLEAR CHARGE:                   18
 NUMBER OF PRIMITIVE AOS:         115
 NUMBER OF SYMMETRY AOS:          107
 NUMBER OF CONTRACTIONS:           76   (  76A   )
 NUMBER OF CORE ORBITALS:           5   (   5A   )
 NUMBER OF VALENCE ORBITALS:        7   (   7A   )


 NUCLEAR REPULSION ENERGY   17.13983090

 Eigenvalues of metric

         1 0.186E-02 0.287E-02 0.289E-02 0.412E-02 0.163E-01 0.163E-01 0.177E-01 0.282E-01


 Contracted 2-electron integrals neglected if value below      1.0D-12
 AO integral compression algorithm  1   Integral accuracy      1.0D-12

     27.001 MB (compressed) written to integral file ( 64.3%)

     Node minimum: 6.816 MB, node maximum: 12.059 MB


 NUMBER OF SORTED TWO-ELECTRON INTEGRALS:    1427400.     BUFFER LENGTH:  32768
 NUMBER OF SEGMENTS:   1  SEGMENT LENGTH:    1427400      RECORD LENGTH: 524288

 Memory used in sort:       1.98 MW

 SORT1 READ     5228810. AND WROTE     1370185. INTEGRALS IN      4 RECORDS. CPU TIME:     0.28 SEC, REAL TIME:     0.36 SEC
 SORT2 READ     4109940. AND WROTE     4282201. INTEGRALS IN     93 RECORDS. CPU TIME:     0.09 SEC, REAL TIME:     0.11 SEC

 Node minimum:     1426425.  Node maximum:     1428376. integrals

 OPERATOR DM      FOR CENTER  0  COORDINATES:    0.000000    0.000000    0.000000
1PROGRAM * RHF-SCF (CLOSED SHELL)       Authors: W. Meyer, H.-J. Werner


 NUMBER OF ELECTRONS:       9+    9-    SPACE SYMMETRY=1    SPIN SYMMETRY: Singlet 
 CONVERGENCE THRESHOLDS:    1.00E-07 (Density)    1.00E-09 (Energy)
 MAX. NUMBER OF ITERATIONS:       60
 INTERPOLATION TYPE:            DIIS
 INTERPOLATION STEPS:              2 (START)      1 (STEP)
 LEVEL SHIFTS:                  0.00 (CLOSED)  0.00 (OPEN) 

 Number of closed-shell orbitals:    9 (   9 )


 Molecular orbitals read from record     2100.2  Type=RHF/CANONICAL (state 1.1)

 Molecular orbital dump at record        2100.1

 ITERATION    DDIFF          GRAD             ENERGY        2-EL.EN.            DIPOLE MOMENTS         DIIS   ORB.
    1      0.000D+00      0.000D+00      -342.48527973    295.770812    0.08203    0.05429   -0.22460    0    start
    2      0.000D+00      0.335D-04      -342.48528061    295.770772    0.08237    0.05367   -0.22463    1    diag
    3      0.569D-04      0.726D-05      -342.48528070    295.770782    0.08231    0.05377   -0.22462    2    diag
    4      0.140D-04      0.192D-05      -342.48528071    295.770777    0.08233    0.05373   -0.22462    3    diag
    5      0.371D-05      0.496D-06      -342.48528071    295.770779    0.08231    0.05377   -0.22462    4    diag
    6      0.114D-05      0.155D-06      -342.48528071    295.770778    0.08231    0.05377   -0.22462    5    diag
    7      0.415D-06      0.209D-07      -342.48528071    295.770779    0.08231    0.05378   -0.22462    6    diag
    8      0.577D-07      0.264D-08      -342.48528071    295.770778    0.08231    0.05378   -0.22462    0    orth

 Final occupancy:   9

 !RHF STATE 1.1 Energy               -342.485280709019
 Nuclear energy                        17.13983090
 One-electron energy                 -507.51050082
 Two-electron energy                  147.88538921
 Virial quotient                       -1.00043623
 !RHF STATE 1.1 Dipole moment           0.08230721     0.05377719    -0.22462154
 Dipole moment /Debye                   0.20919035     0.13667904    -0.57089362

 Orbital energies:

         1.1          2.1          3.1          4.1          5.1          6.1          7.1          8.1          9.1         10.1
    -79.953105    -7.494270    -5.387572    -5.387568    -5.386692    -0.845161    -0.514448    -0.513390    -0.387656     0.135027

        11.1
      0.148212

 HOMO      9.1    -0.387656 =     -10.5486eV
 LUMO     10.1     0.135027 =       3.6743eV
 LUMO-HOMO         0.522683 =      14.2229eV


 **********************************************************************************************************************************
 DATASETS  * FILE   NREC   LENGTH (MB)   RECORD NAMES
              1      19       19.69       500      610      700      900      950      970     1000      129      960     1100   
                                          VAR    BASINP    GEOM    SYMINP    ZMAT    AOBASIS   BASIS     P2S    ABASIS      S 
                                         1400     1410     1200     1210     1080     1600     1650     1700     2100   
                                           T        V       H0       H01     AOSYM     SMH    MOLCAS    OPER      RHF  

              2       5        0.66       700     1000      520     2100     5600   
                                         GEOM     BASIS   MCVARS     RHF     GINFO   

 PROGRAMS   *        TOTAL       RHF   CCSD(T)       RHF       INT
 CPU TIMES  *         4.50      1.66      1.23      0.35      0.70
 REAL TIME  *         8.02 SEC
 DISK USED  *       154.65 MB      
 SF USED    *        10.16 MB      
 GA USED    *         0.00 MB       (max)       0.00 MB       (current)
 **********************************************************************************************************************************


1PROGRAM * CCSD (Closed-shell coupled cluster)     Authors: C. Hampel, H.-J. Werner, 1991, M. Deegan, P.J. Knowles, 1992


 Convergence thresholds:  THRVAR = 1.00D-12  THRDEN = 1.00D-08

 CCSD(T)     terms to be evaluated (factor= 1.000)


 Number of core orbitals:           5 (   5 )
 Number of closed-shell orbitals:   4 (   4 )
 Number of external orbitals:      67 (  67 )

 Molecular orbitals read from record     2100.1  Type=RHF/CANONICAL (state 1.1)

 Number of N-1 electron functions:               4
 Number of N-2 electron functions:              10
 Number of singly external CSFs:               268
 Number of doubly external CSFs:             36046
 Total number of CSFs:                       36315

 Length of J-op  integral file:               0.00 MB
 Length of K-op  integral file:               0.40 MB
 Length of 3-ext integral record:             0.00 MB

 Memory could be reduced to 2.38 Mwords without degradation in triples

 Integral transformation finished. Total CPU:   0.14 sec, npass=  1  Memory used:   1.36 MW

 Reference energy:                   -342.48528071

 MP2 singlet pair energy:              -0.12893259
 MP2 triplet pair energy:              -0.04141338
 MP2 correlation energy:               -0.17034597
 MP2 total energy:                   -342.65562668

 SCS-MP2 correlation energy:           -0.18048743   (PS=  1.200000  PT=  0.333333)
 SCS-MP2 total energy:               -342.66576814

 ITER.      SQ.NORM     CORR.ENERGY   TOTAL ENERGY   ENERGY CHANGE        DEN1      VAR(S)    VAR(P)  DIIS     TIME  TIME/IT
   1      1.09391559    -0.19675405  -342.68203476    -0.02640808    -0.01880643  0.73D-03  0.19D-02  1  1     0.33     0.30
   2      1.10684467    -0.19901284  -342.68429355    -0.00225879    -0.00861071  0.27D-04  0.13D-03  2  2     0.54     0.32
   3      1.10957574    -0.19905511  -342.68433582    -0.00004227    -0.00099456  0.12D-04  0.12D-04  3  3     0.62     0.24
   4      1.11063836    -0.19907477  -342.68435548    -0.00001966    -0.00022802  0.14D-05  0.11D-05  4  4     0.70     0.20
   5      1.11096507    -0.19907206  -342.68435277     0.00000271    -0.00007304  0.13D-06  0.11D-06  5  5     0.97     0.26
   6      1.11102074    -0.19906687  -342.68434758     0.00000519    -0.00000686  0.21D-07  0.91D-08  6  6     1.11     0.25
   7      1.11103435    -0.19906679  -342.68434750     0.00000008    -0.00000146  0.25D-08  0.87D-09  6  1     1.19     0.22
   8      1.11103491    -0.19906686  -342.68434757    -0.00000007     0.00000034  0.36D-09  0.11D-09  6  2     1.28     0.21
   9      1.11103563    -0.19906685  -342.68434756     0.00000001    -0.00000019  0.30D-10  0.10D-10  6  3     1.32     0.20
  10      1.11103543    -0.19906687  -342.68434758    -0.00000002     0.00000004  0.14D-11  0.11D-11  6  4     1.35     0.18
  11      1.11103542    -0.19906688  -342.68434759    -0.00000001    -0.00000001  0.69D-13  0.10D-12  6  5     1.38     0.17
  12      1.11103543    -0.19906688  -342.68434759    -0.00000000    -0.00000001  0.39D-14  0.11D-13  6  6     1.42     0.17

 Norm of t1 vector:      0.05207735      S-energy:    -0.00000000      T1 diagnostic:  0.01301934
                                                                       D1 diagnostic:  0.02127516

 Total CPU time for triples:      0.20 sec


 RESULTS
 =======

  Reference energy                   -342.485280709019
  CCSD singlet pair energy             -0.156272983817
  CCSD triplet pair energy             -0.042793893188
  CCSD correlation energy              -0.199066877288

  Triples (T) contribution             -0.006803875587
  Total correlation energy             -0.205870752874

  CCSD total energy                  -342.684347586307
  CCSD[T] energy                     -342.691331620545
  CCSD-T energy                      -342.691085800488
 !CCSD(T) total energy               -342.691151461894

 Timing summary (sec):

 STEP                 CPU(USER)    SYS     CPU(TOT)    WALL
 Transformation          0.18      0.01      0.19      0.20
 CCSD iterations         1.25      0.07      1.32      2.00
 Triples                 0.20      0.01      0.21      0.33

 Program statistics:

 Available memory in ccsd:               499998700
 Min. memory needed in ccsd:                180702
 Max. memory used in ccsd:                  202452
 Max. memory used in cckext:                177554 (12 integral passes)



 **********************************************************************************************************************************
 DATASETS  * FILE   NREC   LENGTH (MB)   RECORD NAMES
              1      20       25.37       500      610      700      900      950      970     1000      129      960     1100   
                                          VAR    BASINP    GEOM    SYMINP    ZMAT    AOBASIS   BASIS     P2S    ABASIS      S 
                                         1400     1410     1200     1210     1080     1600     1650     1700     2100     1380   
                                           T        V       H0       H01     AOSYM     SMH    MOLCAS    OPER      RHF     JKOP   

              2       5        0.66       700     1000      520     2100     5600   
                                         GEOM     BASIS   MCVARS     RHF     GINFO   

 PROGRAMS   *        TOTAL   CCSD(T)   CCSD(T)       RHF       INT
 CPU TIMES  *         6.15      1.66      1.23      0.35      0.70
 REAL TIME  *        10.59 SEC
 DISK USED  *       155.12 MB      
 SF USED    *        10.16 MB      
 GA USED    *         0.00 MB       (max)       0.00 MB       (current)
 **********************************************************************************************************************************
 Starting task   2   Incrementing displacement  1 by -1.   CPU=    3.53 sec, Elapsed=    5.45 sec


 Recomputing integrals since geometry changed

1PROGRAM * SEWARD (Integral evaluation for generally contracted gaussian basis sets)     Author: Roland Lindh, 1990

 Geometry written to block  1 of record 700


 Point group  C1  



 ATOMIC COORDINATES

 NR  ATOM    CHARGE       X              Y              Z

   1  P      15.00   -5.927823048    5.454556921    0.130625970
   2  H       1.00   -3.253574214    5.593731756   -0.474687197
   3  H       1.00   -6.519581716    3.924872443   -2.071025838
   4  H       1.00   -6.527688385    7.823910050   -1.119147474

 Bond lengths in Bohr (Angstrom)

 1-2  2.745429018  1-3  2.745429585  1-4  2.745105888
     ( 1.452818470)     ( 1.452818770)     ( 1.452647477)

 Bond angles

  2-1-3   93.51956142   2-1-4   93.94064457   3-1-4   93.93981084

 NUCLEAR CHARGE:                   18
 NUMBER OF PRIMITIVE AOS:         115
 NUMBER OF SYMMETRY AOS:          107
 NUMBER OF CONTRACTIONS:           76   (  76A   )
 NUMBER OF CORE ORBITALS:           5   (   5A   )
 NUMBER OF VALENCE ORBITALS:        7   (   7A   )


 NUCLEAR REPULSION ENERGY   17.13983092

 Eigenvalues of metric

         1 0.186E-02 0.287E-02 0.289E-02 0.412E-02 0.163E-01 0.163E-01 0.177E-01 0.282E-01


 Contracted 2-electron integrals neglected if value below      1.0D-12
 AO integral compression algorithm  1   Integral accuracy      1.0D-12

     27.001 MB (compressed) written to integral file ( 64.2%)

     Node minimum: 5.505 MB, node maximum: 11.010 MB


 NUMBER OF SORTED TWO-ELECTRON INTEGRALS:    1427400.     BUFFER LENGTH:  32768
 NUMBER OF SEGMENTS:   1  SEGMENT LENGTH:    1427400      RECORD LENGTH: 524288

 Memory used in sort:       1.98 MW

 SORT1 READ     5228810. AND WROTE     1370185. INTEGRALS IN      4 RECORDS. CPU TIME:     0.17 SEC, REAL TIME:     0.20 SEC
 SORT2 READ     4109936. AND WROTE     4282201. INTEGRALS IN    126 RECORDS. CPU TIME:     0.12 SEC, REAL TIME:     0.14 SEC

 Node minimum:     1426425.  Node maximum:     1428376. integrals

 OPERATOR DM      FOR CENTER  0  COORDINATES:    0.000000    0.000000    0.000000
1PROGRAM * RHF-SCF (CLOSED SHELL)       Authors: W. Meyer, H.-J. Werner


 NUMBER OF ELECTRONS:       9+    9-    SPACE SYMMETRY=1    SPIN SYMMETRY: Singlet 
 CONVERGENCE THRESHOLDS:    1.00E-07 (Density)    1.00E-09 (Energy)
 MAX. NUMBER OF ITERATIONS:       60
 INTERPOLATION TYPE:            DIIS
 INTERPOLATION STEPS:              2 (START)      1 (STEP)
 LEVEL SHIFTS:                  0.00 (CLOSED)  0.00 (OPEN) 

 Number of closed-shell orbitals:    9 (   9 )


 Molecular orbitals read from record     2100.2  Type=RHF/CANONICAL (state 1.1)

 Molecular orbital dump at record        2100.1

 ITERATION    DDIFF          GRAD             ENERGY        2-EL.EN.            DIPOLE MOMENTS         DIIS   ORB.
    1      0.000D+00      0.000D+00      -342.48527972    295.770812    0.08143    0.05542   -0.22454    0    start
    2      0.000D+00      0.335D-04      -342.48528061    295.770772    0.08110    0.05605   -0.22451    1    diag
    3      0.571D-04      0.727D-05      -342.48528070    295.770782    0.08115    0.05594   -0.22451    2    diag
    4      0.141D-04      0.191D-05      -342.48528070    295.770777    0.08113    0.05599   -0.22451    3    diag
    5      0.370D-05      0.492D-06      -342.48528071    295.770779    0.08115    0.05595   -0.22451    4    diag
    6      0.113D-05      0.154D-06      -342.48528071    295.770778    0.08115    0.05595   -0.22451    5    diag
    7      0.412D-06      0.208D-07      -342.48528071    295.770779    0.08115    0.05594   -0.22451    6    diag
    8      0.577D-07      0.265D-08      -342.48528071    295.770778    0.08115    0.05594   -0.22451    0    orth

 Final occupancy:   9

 !RHF STATE 1.1 Energy               -342.485280705106
 Nuclear energy                        17.13983092
 One-electron energy                 -507.51050085
 Two-electron energy                  147.88538923
 Virial quotient                       -1.00043623
 !RHF STATE 1.1 Dipole moment           0.08115265     0.05594274    -0.22451277
 Dipole moment /Debye                   0.20625596     0.14218296    -0.57061717

 Orbital energies:

         1.1          2.1          3.1          4.1          5.1          6.1          7.1          8.1          9.1         10.1
    -79.953105    -7.494270    -5.387572    -5.387568    -5.386692    -0.845161    -0.514451    -0.513386    -0.387656     0.135027

        11.1
      0.148213

 HOMO      9.1    -0.387656 =     -10.5486eV
 LUMO     10.1     0.135027 =       3.6743eV
 LUMO-HOMO         0.522683 =      14.2229eV


 **********************************************************************************************************************************
 DATASETS  * FILE   NREC   LENGTH (MB)   RECORD NAMES
              1      19       19.69       500      610      700      900      950      970     1000      129      960     1100   
                                          VAR    BASINP    GEOM    SYMINP    ZMAT    AOBASIS   BASIS     P2S    ABASIS      S 
                                         1400     1410     1200     1210     1080     1600     1650     1700     2100   
                                           T        V       H0       H01     AOSYM     SMH    MOLCAS    OPER      RHF  

              2       5        0.66       700     1000      520     2100     5600   
                                         GEOM     BASIS   MCVARS     RHF     GINFO   

 PROGRAMS   *        TOTAL       RHF   CCSD(T)       RHF       INT
 CPU TIMES  *         6.89      0.73      1.23      0.35      0.70
 REAL TIME  *        11.45 SEC
 DISK USED  *       155.80 MB      
 SF USED    *        10.16 MB      
 GA USED    *         0.00 MB       (max)       0.00 MB       (current)
 **********************************************************************************************************************************


1PROGRAM * CCSD (Closed-shell coupled cluster)     Authors: C. Hampel, H.-J. Werner, 1991, M. Deegan, P.J. Knowles, 1992


 Convergence thresholds:  THRVAR = 1.00D-12  THRDEN = 1.00D-08

 CCSD(T)     terms to be evaluated (factor= 1.000)


 Number of core orbitals:           5 (   5 )
 Number of closed-shell orbitals:   4 (   4 )
 Number of external orbitals:      67 (  67 )

 Molecular orbitals read from record     2100.1  Type=RHF/CANONICAL (state 1.1)

 Number of N-1 electron functions:               4
 Number of N-2 electron functions:              10
 Number of singly external CSFs:               268
 Number of doubly external CSFs:             36046
 Total number of CSFs:                       36315

 Length of J-op  integral file:               0.00 MB
 Length of K-op  integral file:               0.40 MB
 Length of 3-ext integral record:             0.00 MB

 Memory could be reduced to 2.38 Mwords without degradation in triples

 Integral transformation finished. Total CPU:   0.12 sec, npass=  1  Memory used:   1.36 MW

 Reference energy:                   -342.48528071

 MP2 singlet pair energy:              -0.12893259
 MP2 triplet pair energy:              -0.04141338
 MP2 correlation energy:               -0.17034597
 MP2 total energy:                   -342.65562667

 SCS-MP2 correlation energy:           -0.18048743   (PS=  1.200000  PT=  0.333333)
 SCS-MP2 total energy:               -342.66576814

 ITER.      SQ.NORM     CORR.ENERGY   TOTAL ENERGY   ENERGY CHANGE        DEN1      VAR(S)    VAR(P)  DIIS     TIME  TIME/IT
   1      1.09391559    -0.19675405  -342.68203475    -0.02640808    -0.01880643  0.73D-03  0.19D-02  1  1     0.21     0.07
   2      1.10684438    -0.19901284  -342.68429355    -0.00225879    -0.00861053  0.27D-04  0.13D-03  2  2     0.25     0.06
   3      1.10957557    -0.19905512  -342.68433582    -0.00004228    -0.00099467  0.12D-04  0.12D-04  3  3     0.29     0.05
   4      1.11063824    -0.19907478  -342.68435548    -0.00001966    -0.00022805  0.14D-05  0.11D-05  4  4     0.32     0.05
   5      1.11096504    -0.19907207  -342.68435277     0.00000271    -0.00007307  0.13D-06  0.11D-06  5  5     0.35     0.05
   6      1.11102074    -0.19906687  -342.68434758     0.00000519    -0.00000688  0.21D-07  0.91D-08  6  6     0.40     0.05
   7      1.11103435    -0.19906680  -342.68434750     0.00000008    -0.00000146  0.25D-08  0.87D-09  6  1     0.43     0.05
   8      1.11103491    -0.19906686  -342.68434757    -0.00000007     0.00000034  0.36D-09  0.11D-09  6  2     0.47     0.05
   9      1.11103563    -0.19906685  -342.68434755     0.00000001    -0.00000019  0.30D-10  0.10D-10  6  3     0.50     0.04
  10      1.11103543    -0.19906687  -342.68434758    -0.00000002     0.00000004  0.14D-11  0.11D-11  6  4     0.54     0.05
  11      1.11103542    -0.19906688  -342.68434758    -0.00000001    -0.00000001  0.69D-13  0.10D-12  6  5     0.59     0.05
  12      1.11103543    -0.19906688  -342.68434758    -0.00000000    -0.00000001  0.38D-14  0.11D-13  6  6     0.65     0.05

 Norm of t1 vector:      0.05207735      S-energy:    -0.00000000      T1 diagnostic:  0.01301934
                                                                       D1 diagnostic:  0.02127497

 Total CPU time for triples:      0.16 sec


 RESULTS
 =======

  Reference energy                   -342.485280705106
  CCSD singlet pair energy             -0.156272984000
  CCSD triplet pair energy             -0.042793894043
  CCSD correlation energy              -0.199066878325

  Triples (T) contribution             -0.006803875760
  Total correlation energy             -0.205870754085

  CCSD total energy                  -342.684347583431
  CCSD[T] energy                     -342.691331617837
  CCSD-T energy                      -342.691085797787
 !CCSD(T) total energy               -342.691151459191

 Timing summary (sec):

 STEP                 CPU(USER)    SYS     CPU(TOT)    WALL
 Transformation          0.14      0.02      0.16      0.23
 CCSD iterations         0.51      0.06      0.57      0.59
 Triples                 0.16      0.00      0.16      0.16

 Program statistics:

 Available memory in ccsd:               499998700
 Min. memory needed in ccsd:                180702
 Max. memory used in ccsd:                  202452
 Max. memory used in cckext:                177554 (12 integral passes)



 **********************************************************************************************************************************
 DATASETS  * FILE   NREC   LENGTH (MB)   RECORD NAMES
              1      20       25.37       500      610      700      900      950      970     1000      129      960     1100   
                                          VAR    BASINP    GEOM    SYMINP    ZMAT    AOBASIS   BASIS     P2S    ABASIS      S 
                                         1400     1410     1200     1210     1080     1600     1650     1700     2100     1380   
                                           T        V       H0       H01     AOSYM     SMH    MOLCAS    OPER      RHF     JKOP   

              2       5        0.66       700     1000      520     2100     5600   
                                         GEOM     BASIS   MCVARS     RHF     GINFO   

 PROGRAMS   *        TOTAL   CCSD(T)   CCSD(T)       RHF       INT
 CPU TIMES  *         7.76      0.84      1.23      0.35      0.70
 REAL TIME  *        12.49 SEC
 DISK USED  *       155.80 MB      
 SF USED    *        10.16 MB      
 GA USED    *         0.00 MB       (max)       0.00 MB       (current)
 **********************************************************************************************************************************
 Starting task   3   Incrementing displacement  2 by  1.   CPU=    5.32 sec, Elapsed=    7.35 sec


 Recomputing integrals since geometry changed

1PROGRAM * SEWARD (Integral evaluation for generally contracted gaussian basis sets)     Author: Roland Lindh, 1990

 Geometry written to block  1 of record 700


 Point group  C1  



 ATOMIC COORDINATES

 NR  ATOM    CHARGE       X              Y              Z

   1  P      15.00   -5.928116767    5.450289297    0.135673796
   2  H       1.00   -3.255378919    5.599520330   -0.475208745
   3  H       1.00   -6.522582330    3.930032292   -2.072131520
   4  H       1.00   -6.522589348    7.817229250   -1.122568071

 Bond lengths in Bohr (Angstrom)

 1-2  2.745719393  1-3  2.745719392  1-4  2.745719393
     ( 1.452972130)     ( 1.452972130)     ( 1.452972130)

 Bond angles

  2-1-3   93.55152633   2-1-4   93.55152688   3-1-4   93.55152688

 NUCLEAR CHARGE:                   18
 NUMBER OF PRIMITIVE AOS:         115
 NUMBER OF SYMMETRY AOS:          107
 NUMBER OF CONTRACTIONS:           76   (  76A   )
 NUMBER OF CORE ORBITALS:           5   (   5A   )
 NUMBER OF VALENCE ORBITALS:        7   (   7A   )


 NUCLEAR REPULSION ENERGY   17.13886705

 Eigenvalues of metric

         1 0.186E-02 0.288E-02 0.288E-02 0.409E-02 0.163E-01 0.163E-01 0.177E-01 0.281E-01


 Contracted 2-electron integrals neglected if value below      1.0D-12
 AO integral compression algorithm  1   Integral accuracy      1.0D-12

     27.001 MB (compressed) written to integral file ( 63.9%)

     Node minimum: 8.126 MB, node maximum: 10.224 MB


 NUMBER OF SORTED TWO-ELECTRON INTEGRALS:    1427400.     BUFFER LENGTH:  32768
 NUMBER OF SEGMENTS:   1  SEGMENT LENGTH:    1427400      RECORD LENGTH: 524288

 Memory used in sort:       1.98 MW

 SORT1 READ     5228810. AND WROTE     1369901. INTEGRALS IN      4 RECORDS. CPU TIME:     0.12 SEC, REAL TIME:     0.13 SEC
 SORT2 READ     4108983. AND WROTE     4282201. INTEGRALS IN    117 RECORDS. CPU TIME:     0.09 SEC, REAL TIME:     0.10 SEC

 Node minimum:     1426425.  Node maximum:     1428376. integrals

 OPERATOR DM      FOR CENTER  0  COORDINATES:    0.000000    0.000000    0.000000
1PROGRAM * RHF-SCF (CLOSED SHELL)       Authors: W. Meyer, H.-J. Werner


 NUMBER OF ELECTRONS:       9+    9-    SPACE SYMMETRY=1    SPIN SYMMETRY: Singlet 
 CONVERGENCE THRESHOLDS:    1.00E-07 (Density)    1.00E-09 (Energy)
 MAX. NUMBER OF ITERATIONS:       60
 INTERPOLATION TYPE:            DIIS
 INTERPOLATION STEPS:              2 (START)      1 (STEP)
 LEVEL SHIFTS:                  0.00 (CLOSED)  0.00 (OPEN) 

 Number of closed-shell orbitals:    9 (   9 )


 Molecular orbitals read from record     2100.2  Type=RHF/CANONICAL (state 1.1)

 Molecular orbital dump at record        2100.1

 ITERATION    DDIFF          GRAD             ENERGY        2-EL.EN.            DIPOLE MOMENTS         DIIS   ORB.
    1      0.000D+00      0.000D+00      -342.48521408    295.769642    0.08137    0.05462   -0.22358    0    start
    2      0.000D+00      0.472D-04      -342.48521576    295.768640    0.08102    0.05438   -0.22261    1    diag
    3      0.913D-04      0.931D-05      -342.48521588    295.769227    0.08098    0.05436   -0.22251    2    diag
    4      0.216D-04      0.191D-05      -342.48521589    295.769051    0.08092    0.05432   -0.22235    3    diag
    5      0.479D-05      0.338D-06      -342.48521589    295.769178    0.08092    0.05431   -0.22234    4    diag
    6      0.103D-05      0.791D-07      -342.48521589    295.769159    0.08092    0.05431   -0.22233    5    diag
    7      0.224D-06      0.175D-07      -342.48521589    295.769162    0.08092    0.05431   -0.22233    6    diag
    8      0.628D-07      0.443D-08      -342.48521589    295.769162    0.08092    0.05431   -0.22233    0    orth

 Final occupancy:   9

 !RHF STATE 1.1 Energy               -342.485215890155
 Nuclear energy                        17.13886705
 One-electron energy                 -507.50866394
 Two-electron energy                  147.88458101
 Virial quotient                       -1.00043666
 !RHF STATE 1.1 Dipole moment           0.08091799     0.05431149    -0.22233255
 Dipole moment /Debye                   0.20565955     0.13803698    -0.56507597

 Orbital energies:

         1.1          2.1          3.1          4.1          5.1          6.1          7.1          8.1          9.1         10.1
    -79.953170    -7.494319    -5.387611    -5.387611    -5.386730    -0.845205    -0.513378    -0.513378    -0.388347     0.135044

        11.1
      0.148254

 HOMO      9.1    -0.388347 =     -10.5675eV
 LUMO     10.1     0.135044 =       3.6747eV
 LUMO-HOMO         0.523392 =      14.2422eV


 **********************************************************************************************************************************
 DATASETS  * FILE   NREC   LENGTH (MB)   RECORD NAMES
              1      19       19.69       500      610      700      900      950      970     1000      129      960     1100   
                                          VAR    BASINP    GEOM    SYMINP    ZMAT    AOBASIS   BASIS     P2S    ABASIS      S 
                                         1400     1410     1200     1210     1080     1600     1650     1700     2100   
                                           T        V       H0       H01     AOSYM     SMH    MOLCAS    OPER      RHF  

              2       5        0.66       700     1000      520     2100     5600   
                                         GEOM     BASIS   MCVARS     RHF     GINFO   

 PROGRAMS   *        TOTAL       RHF   CCSD(T)       RHF       INT
 CPU TIMES  *         8.57      0.80      1.23      0.35      0.70
 REAL TIME  *        13.37 SEC
 DISK USED  *       155.80 MB      
 SF USED    *        10.16 MB      
 GA USED    *         0.00 MB       (max)       0.00 MB       (current)
 **********************************************************************************************************************************


1PROGRAM * CCSD (Closed-shell coupled cluster)     Authors: C. Hampel, H.-J. Werner, 1991, M. Deegan, P.J. Knowles, 1992


 Convergence thresholds:  THRVAR = 1.00D-12  THRDEN = 1.00D-08

 CCSD(T)     terms to be evaluated (factor= 1.000)


 Number of core orbitals:           5 (   5 )
 Number of closed-shell orbitals:   4 (   4 )
 Number of external orbitals:      67 (  67 )

 Molecular orbitals read from record     2100.1  Type=RHF/CANONICAL (state 1.1)

 Number of N-1 electron functions:               4
 Number of N-2 electron functions:              10
 Number of singly external CSFs:               268
 Number of doubly external CSFs:             36046
 Total number of CSFs:                       36315

 Length of J-op  integral file:               0.00 MB
 Length of K-op  integral file:               0.40 MB
 Length of 3-ext integral record:             0.00 MB

 Memory could be reduced to 2.38 Mwords without degradation in triples

 Integral transformation finished. Total CPU:   0.15 sec, npass=  1  Memory used:   1.36 MW

 Reference energy:                   -342.48521589

 MP2 singlet pair energy:              -0.12896281
 MP2 triplet pair energy:              -0.04145237
 MP2 correlation energy:               -0.17041518
 MP2 total energy:                   -342.65563107

 SCS-MP2 correlation energy:           -0.18054795   (PS=  1.200000  PT=  0.333333)
 SCS-MP2 total energy:               -342.66576384

 ITER.      SQ.NORM     CORR.ENERGY   TOTAL ENERGY   ENERGY CHANGE        DEN1      VAR(S)    VAR(P)  DIIS     TIME  TIME/IT
   1      1.09397149    -0.19681750  -342.68203339    -0.02640232    -0.01879911  0.74D-03  0.19D-02  1  1     0.24     0.06
   2      1.10690828    -0.19907747  -342.68429336    -0.00225997    -0.00861029  0.27D-04  0.13D-03  2  2     0.33     0.09
   3      1.10964743    -0.19912008  -342.68433597    -0.00004261    -0.00099696  0.12D-04  0.12D-04  3  3     0.42     0.09
   4      1.11071497    -0.19913981  -342.68435570    -0.00001972    -0.00022882  0.14D-05  0.11D-05  4  4     0.50     0.09
   5      1.11104350    -0.19913708  -342.68435297     0.00000273    -0.00007332  0.13D-06  0.11D-06  5  5     0.61     0.09
   6      1.11109952    -0.19913187  -342.68434776     0.00000521    -0.00000688  0.21D-07  0.91D-08  6  6     0.64     0.08
   7      1.11111321    -0.19913178  -342.68434767     0.00000008    -0.00000147  0.24D-08  0.87D-09  6  1     0.68     0.08
   8      1.11111378    -0.19913185  -342.68434774    -0.00000007     0.00000034  0.36D-09  0.11D-09  6  2     0.71     0.07
   9      1.11111451    -0.19913183  -342.68434772     0.00000002    -0.00000019  0.29D-10  0.10D-10  6  3     0.75     0.07
  10      1.11111430    -0.19913186  -342.68434775    -0.00000002     0.00000004  0.14D-11  0.11D-11  6  4     0.79     0.07
  11      1.11111430    -0.19913186  -342.68434775    -0.00000001    -0.00000001  0.69D-13  0.10D-12  6  5     0.83     0.06
  12      1.11111431    -0.19913186  -342.68434775    -0.00000000    -0.00000001  0.38D-14  0.11D-13  6  6     0.86     0.06

 Norm of t1 vector:      0.05216740      S-energy:    -0.00000000      T1 diagnostic:  0.01304185
                                                                       D1 diagnostic:  0.02126917

 Total CPU time for triples:      0.14 sec


 RESULTS
 =======

  Reference energy                   -342.485215890154
  CCSD singlet pair energy             -0.156305514011
  CCSD triplet pair energy             -0.042826348334
  CCSD correlation energy              -0.199131863563

  Triples (T) contribution             -0.006812685667
  Total correlation energy             -0.205944549231

  CCSD total energy                  -342.684347753718
  CCSD[T] energy                     -342.691341106449
  CCSD-T energy                      -342.691094618235
 !CCSD(T) total energy               -342.691160439385

 Timing summary (sec):

 STEP                 CPU(USER)    SYS     CPU(TOT)    WALL
 Transformation          0.18      0.02      0.20      0.19
 CCSD iterations         0.69      0.05      0.74      0.76
 Triples                 0.14      0.01      0.15      0.16

 Program statistics:

 Available memory in ccsd:               499998700
 Min. memory needed in ccsd:                180702
 Max. memory used in ccsd:                  202452
 Max. memory used in cckext:                177554 (12 integral passes)



 **********************************************************************************************************************************
 DATASETS  * FILE   NREC   LENGTH (MB)   RECORD NAMES
              1      20       25.37       500      610      700      900      950      970     1000      129      960     1100   
                                          VAR    BASINP    GEOM    SYMINP    ZMAT    AOBASIS   BASIS     P2S    ABASIS      S 
                                         1400     1410     1200     1210     1080     1600     1650     1700     2100     1380   
                                           T        V       H0       H01     AOSYM     SMH    MOLCAS    OPER      RHF     JKOP   

              2       5        0.66       700     1000      520     2100     5600   
                                         GEOM     BASIS   MCVARS     RHF     GINFO   

 PROGRAMS   *        TOTAL   CCSD(T)   CCSD(T)       RHF       INT
 CPU TIMES  *         9.62      1.04      1.23      0.35      0.70
 REAL TIME  *        14.56 SEC
 DISK USED  *       155.80 MB      
 SF USED    *        10.16 MB      
 GA USED    *         0.00 MB       (max)       0.00 MB       (current)
 **********************************************************************************************************************************
 Starting task   4   Incrementing displacement  2 by -1.   CPU=    7.34 sec, Elapsed=    9.42 sec


 Recomputing integrals since geometry changed

1PROGRAM * SEWARD (Integral evaluation for generally contracted gaussian basis sets)     Author: Roland Lindh, 1990

 Geometry written to block  1 of record 700


 Point group  C1  



 ATOMIC COORDINATES

 NR  ATOM    CHARGE       X              Y              Z

   1  P      15.00   -5.924332825    5.452829047    0.125276930
   2  H       1.00   -3.248417734    5.597983900   -0.468919058
   3  H       1.00   -6.527954880    3.922193522   -2.071870238
   4  H       1.00   -6.527961925    7.824064699   -1.118722174

 Bond lengths in Bohr (Angstrom)

 1-2  2.744933583  1-3  2.744933583  1-4  2.744933584
     ( 1.452556298)     ( 1.452556298)     ( 1.452556298)

 Bond angles

  2-1-3   94.04797340   2-1-4   94.04797392   3-1-4   94.04797393

 NUCLEAR CHARGE:                   18
 NUMBER OF PRIMITIVE AOS:         115
 NUMBER OF SYMMETRY AOS:          107
 NUMBER OF CONTRACTIONS:           76   (  76A   )
 NUMBER OF CORE ORBITALS:           5   (   5A   )
 NUMBER OF VALENCE ORBITALS:        7   (   7A   )


 NUCLEAR REPULSION ENERGY   17.14073931

 Eigenvalues of metric

         1 0.186E-02 0.287E-02 0.287E-02 0.415E-02 0.163E-01 0.163E-01 0.177E-01 0.282E-01


 Contracted 2-electron integrals neglected if value below      1.0D-12
 AO integral compression algorithm  1   Integral accuracy      1.0D-12

     27.001 MB (compressed) written to integral file ( 63.8%)

     Node minimum: 6.029 MB, node maximum: 10.486 MB


 NUMBER OF SORTED TWO-ELECTRON INTEGRALS:    1427400.     BUFFER LENGTH:  32768
 NUMBER OF SEGMENTS:   1  SEGMENT LENGTH:    1427400      RECORD LENGTH: 524288

 Memory used in sort:       1.98 MW

 SORT1 READ     5228810. AND WROTE     1369873. INTEGRALS IN      4 RECORDS. CPU TIME:     0.08 SEC, REAL TIME:     0.18 SEC
 SORT2 READ     4108940. AND WROTE     4282201. INTEGRALS IN    120 RECORDS. CPU TIME:     0.08 SEC, REAL TIME:     0.10 SEC

 Node minimum:     1426425.  Node maximum:     1428376. integrals

 OPERATOR DM      FOR CENTER  0  COORDINATES:    0.000000    0.000000    0.000000
1PROGRAM * RHF-SCF (CLOSED SHELL)       Authors: W. Meyer, H.-J. Werner


 NUMBER OF ELECTRONS:       9+    9-    SPACE SYMMETRY=1    SPIN SYMMETRY: Singlet 
 CONVERGENCE THRESHOLDS:    1.00E-07 (Density)    1.00E-09 (Energy)
 MAX. NUMBER OF ITERATIONS:       60
 INTERPOLATION TYPE:            DIIS
 INTERPOLATION STEPS:              2 (START)      1 (STEP)
 LEVEL SHIFTS:                  0.00 (CLOSED)  0.00 (OPEN) 

 Number of closed-shell orbitals:    9 (   9 )


 Molecular orbitals read from record     2100.2  Type=RHF/CANONICAL (state 1.1)

 Molecular orbital dump at record        2100.1

 ITERATION    DDIFF          GRAD             ENERGY        2-EL.EN.            DIPOLE MOMENTS         DIIS   ORB.
    1      0.000D+00      0.000D+00      -342.48534062    295.771907    0.08209    0.05510   -0.22556    0    start
    2      0.000D+00      0.472D-04      -342.48534229    295.772782    0.08244    0.05533   -0.22652    1    diag
    3      0.909D-04      0.929D-05      -342.48534242    295.772231    0.08247    0.05536   -0.22661    2    diag
    4      0.215D-04      0.190D-05      -342.48534242    295.772390    0.08253    0.05540   -0.22677    3    diag
    5      0.481D-05      0.332D-06      -342.48534242    295.772270    0.08254    0.05540   -0.22678    4    diag
    6      0.104D-05      0.783D-07      -342.48534242    295.772290    0.08254    0.05540   -0.22679    5    diag
    7      0.227D-06      0.176D-07      -342.48534242    295.772286    0.08254    0.05540   -0.22679    6    diag
    8      0.637D-07      0.447D-08      -342.48534242    295.772286    0.08254    0.05540   -0.22679    0    orth

 Final occupancy:   9

 !RHF STATE 1.1 Energy               -342.485342422299
 Nuclear energy                        17.14073931
 One-electron energy                 -507.51222485
 Two-electron energy                  147.88614312
 Virial quotient                       -1.00043585
 !RHF STATE 1.1 Dipole moment           0.08254104     0.05540086    -0.22679208
 Dipole moment /Debye                   0.20978465     0.14080572    -0.57641021

 Orbital energies:

         1.1          2.1          3.1          4.1          5.1          6.1          7.1          8.1          9.1         10.1
    -79.953042    -7.494221    -5.387529    -5.387529    -5.386655    -0.845115    -0.514457    -0.514457    -0.386965     0.135009

        11.1
      0.148717

 HOMO      9.1    -0.386965 =     -10.5298eV
 LUMO     10.1     0.135009 =       3.6738eV
 LUMO-HOMO         0.521974 =      14.2036eV


 **********************************************************************************************************************************
 DATASETS  * FILE   NREC   LENGTH (MB)   RECORD NAMES
              1      19       19.69       500      610      700      900      950      970     1000      129      960     1100   
                                          VAR    BASINP    GEOM    SYMINP    ZMAT    AOBASIS   BASIS     P2S    ABASIS      S 
                                         1400     1410     1200     1210     1080     1600     1650     1700     2100   
                                           T        V       H0       H01     AOSYM     SMH    MOLCAS    OPER      RHF  

              2       5        0.66       700     1000      520     2100     5600   
                                         GEOM     BASIS   MCVARS     RHF     GINFO   

 PROGRAMS   *        TOTAL       RHF   CCSD(T)       RHF       INT
 CPU TIMES  *        10.31      0.68      1.23      0.35      0.70
 REAL TIME  *        15.44 SEC
 DISK USED  *       155.80 MB      
 SF USED    *        10.16 MB      
 GA USED    *         0.00 MB       (max)       0.00 MB       (current)
 **********************************************************************************************************************************


1PROGRAM * CCSD (Closed-shell coupled cluster)     Authors: C. Hampel, H.-J. Werner, 1991, M. Deegan, P.J. Knowles, 1992


 Convergence thresholds:  THRVAR = 1.00D-12  THRDEN = 1.00D-08

 CCSD(T)     terms to be evaluated (factor= 1.000)


 Number of core orbitals:           5 (   5 )
 Number of closed-shell orbitals:   4 (   4 )
 Number of external orbitals:      67 (  67 )

 Molecular orbitals read from record     2100.1  Type=RHF/CANONICAL (state 1.1)

 Number of N-1 electron functions:               4
 Number of N-2 electron functions:              10
 Number of singly external CSFs:               268
 Number of doubly external CSFs:             36046
 Total number of CSFs:                       36315

 Length of J-op  integral file:               0.00 MB
 Length of K-op  integral file:               0.40 MB
 Length of 3-ext integral record:             0.00 MB

 Memory could be reduced to 2.38 Mwords without degradation in triples

 Integral transformation finished. Total CPU:   0.14 sec, npass=  1  Memory used:   1.36 MW

 Reference energy:                   -342.48534242

 MP2 singlet pair energy:              -0.12890250
 MP2 triplet pair energy:              -0.04137496
 MP2 correlation energy:               -0.17027746
 MP2 total energy:                   -342.65561988

 SCS-MP2 correlation energy:           -0.18042742   (PS=  1.200000  PT=  0.333333)
 SCS-MP2 total energy:               -342.66576984

 ITER.      SQ.NORM     CORR.ENERGY   TOTAL ENERGY   ENERGY CHANGE        DEN1      VAR(S)    VAR(P)  DIIS     TIME  TIME/IT
   1      1.09386039    -0.19669114  -342.68203357    -0.02641368    -0.01881361  0.73D-03  0.19D-02  1  1     0.22     0.07
   2      1.10678145    -0.19894875  -342.68429117    -0.00225760    -0.00861092  0.27D-04  0.13D-03  2  2     0.29     0.12
   3      1.10950457    -0.19899068  -342.68433311    -0.00004194    -0.00099227  0.12D-04  0.12D-04  3  3     0.38     0.14
   4      1.11056230    -0.19901027  -342.68435270    -0.00001959    -0.00022724  0.14D-05  0.11D-05  4  4     0.46     0.14
   5      1.11088727    -0.19900759  -342.68435001     0.00000269    -0.00007279  0.13D-06  0.11D-06  5  5     0.54     0.13
   6      1.11094262    -0.19900242  -342.68434484     0.00000517    -0.00000685  0.21D-07  0.90D-08  6  6     0.60     0.12
   7      1.11095615    -0.19900234  -342.68434476     0.00000007    -0.00000146  0.25D-08  0.87D-09  6  1     0.69     0.12
   8      1.11095670    -0.19900241  -342.68434483    -0.00000007     0.00000034  0.36D-09  0.11D-09  6  2     0.80     0.12
   9      1.11095741    -0.19900240  -342.68434482     0.00000001    -0.00000019  0.30D-10  0.11D-10  6  3     0.91     0.12
  10      1.11095721    -0.19900242  -342.68434484    -0.00000002     0.00000004  0.14D-11  0.12D-11  6  4     0.99     0.11
  11      1.11095720    -0.19900243  -342.68434485    -0.00000001    -0.00000001  0.70D-13  0.11D-12  6  5     1.06     0.11
  12      1.11095721    -0.19900243  -342.68434485    -0.00000000    -0.00000001  0.39D-14  0.11D-13  6  6     1.15     0.11

 Norm of t1 vector:      0.05198667      S-energy:     0.00000000      T1 diagnostic:  0.01299667
                                                                       D1 diagnostic:  0.02116120

 Total CPU time for triples:      0.20 sec


 RESULTS
 =======

  Reference energy                   -342.485342422300
  CCSD singlet pair energy             -0.156240534711
  CCSD triplet pair energy             -0.042761893037
  CCSD correlation energy              -0.199002427229

  Triples (T) contribution             -0.006795168175
  Total correlation energy             -0.205797595404

  CCSD total energy                  -342.684344849529
  CCSD[T] energy                     -342.691319669011
  CCSD-T energy                      -342.691074515886
 !CCSD(T) total energy               -342.691140017703

 Timing summary (sec):

 STEP                 CPU(USER)    SYS     CPU(TOT)    WALL
 Transformation          0.15      0.01      0.16      0.19
 CCSD iterations         1.00      0.05      1.05      1.32
 Triples                 0.20      0.00      0.20      0.24

 Program statistics:

 Available memory in ccsd:               499998700
 Min. memory needed in ccsd:                180702
 Max. memory used in ccsd:                  202452
 Max. memory used in cckext:                177554 (12 integral passes)



 **********************************************************************************************************************************
 DATASETS  * FILE   NREC   LENGTH (MB)   RECORD NAMES
              1      20       25.37       500      610      700      900      950      970     1000      129      960     1100   
                                          VAR    BASINP    GEOM    SYMINP    ZMAT    AOBASIS   BASIS     P2S    ABASIS      S 
                                         1400     1410     1200     1210     1080     1600     1650     1700     2100     1380   
                                           T        V       H0       H01     AOSYM     SMH    MOLCAS    OPER      RHF     JKOP   

              2       5        0.66       700     1000      520     2100     5600   
                                         GEOM     BASIS   MCVARS     RHF     GINFO   

 PROGRAMS   *        TOTAL   CCSD(T)   CCSD(T)       RHF       INT
 CPU TIMES  *        11.79      1.44      1.23      0.35      0.70
 REAL TIME  *        17.38 SEC
 DISK USED  *       155.80 MB      
 SF USED    *        10.16 MB      
 GA USED    *         0.00 MB       (max)       0.00 MB       (current)
 **********************************************************************************************************************************
 Starting task   5   Incrementing displacement  3 by  1.   CPU=    9.69 sec, Elapsed=   12.30 sec


 Recomputing integrals since geometry changed

1PROGRAM * SEWARD (Integral evaluation for generally contracted gaussian basis sets)     Author: Roland Lindh, 1990

 Geometry written to block  1 of record 700


 Point group  C1  



 ATOMIC COORDINATES

 NR  ATOM    CHARGE       X              Y              Z

   1  P      15.00   -5.928405121    5.450095756    0.136466086
   2  H       1.00   -3.247604026    5.598940614   -0.472835521
   3  H       1.00   -6.526325587    3.923566987   -2.075388065
   4  H       1.00   -6.526332630    7.824467812   -1.122477038

 Bond lengths in Bohr (Angstrom)

 1-2  2.753197731  1-3  2.753197731  1-4  2.753197733
     ( 1.456929497)     ( 1.456929497)     ( 1.456929497)

 Bond angles

  2-1-3   93.64905769   2-1-4   93.64905822   3-1-4   93.64905822

 NUCLEAR CHARGE:                   18
 NUMBER OF PRIMITIVE AOS:         115
 NUMBER OF SYMMETRY AOS:          107
 NUMBER OF CONTRACTIONS:           76   (  76A   )
 NUMBER OF CORE ORBITALS:           5   (   5A   )
 NUMBER OF VALENCE ORBITALS:        7   (   7A   )


 NUCLEAR REPULSION ENERGY   17.09171646

 Eigenvalues of metric

         1 0.189E-02 0.292E-02 0.292E-02 0.412E-02 0.164E-01 0.164E-01 0.177E-01 0.282E-01


 Contracted 2-electron integrals neglected if value below      1.0D-12
 AO integral compression algorithm  1   Integral accuracy      1.0D-12

     26.739 MB (compressed) written to integral file ( 64.4%)

     Node minimum: 5.767 MB, node maximum: 11.534 MB


 NUMBER OF SORTED TWO-ELECTRON INTEGRALS:    1427400.     BUFFER LENGTH:  32768
 NUMBER OF SEGMENTS:   1  SEGMENT LENGTH:    1427400      RECORD LENGTH: 524288

 Memory used in sort:       1.98 MW

 SORT1 READ     5228810. AND WROTE     1369870. INTEGRALS IN      4 RECORDS. CPU TIME:     0.13 SEC, REAL TIME:     0.29 SEC
 SORT2 READ     4108935. AND WROTE     4282201. INTEGRALS IN    132 RECORDS. CPU TIME:     0.04 SEC, REAL TIME:     0.11 SEC

 Node minimum:     1426425.  Node maximum:     1428376. integrals

 OPERATOR DM      FOR CENTER  0  COORDINATES:    0.000000    0.000000    0.000000
1PROGRAM * RHF-SCF (CLOSED SHELL)       Authors: W. Meyer, H.-J. Werner


 NUMBER OF ELECTRONS:       9+    9-    SPACE SYMMETRY=1    SPIN SYMMETRY: Singlet 
 CONVERGENCE THRESHOLDS:    1.00E-07 (Density)    1.00E-09 (Energy)
 MAX. NUMBER OF ITERATIONS:       60
 INTERPOLATION TYPE:            DIIS
 INTERPOLATION STEPS:              2 (START)      1 (STEP)
 LEVEL SHIFTS:                  0.00 (CLOSED)  0.00 (OPEN) 

 Number of closed-shell orbitals:    9 (   9 )


 Molecular orbitals read from record     2100.2  Type=RHF/CANONICAL (state 1.1)

 Molecular orbital dump at record        2100.1

 ITERATION    DDIFF          GRAD             ENERGY        2-EL.EN.            DIPOLE MOMENTS         DIIS   ORB.
    1      0.000D+00      0.000D+00      -342.48481729    295.686931    0.08139    0.05463   -0.22362    0    start
    2      0.000D+00      0.914D-04      -342.48482334    295.664109    0.08091    0.05431   -0.22232    1    diag
    3      0.282D-03      0.183D-04      -342.48482377    295.669482    0.08055    0.05407   -0.22132    2    diag
    4      0.512D-04      0.495D-05      -342.48482381    295.667836    0.08040    0.05396   -0.22090    3    diag
    5      0.117D-04      0.145D-05      -342.48482382    295.668197    0.08034    0.05393   -0.22076    4    diag
    6      0.551D-05      0.265D-06      -342.48482382    295.668201    0.08033    0.05392   -0.22072    5    diag
    7      0.109D-05      0.582D-07      -342.48482382    295.668207    0.08033    0.05392   -0.22071    6    diag
    8      0.258D-06      0.867D-08      -342.48482382    295.668205    0.08033    0.05392   -0.22071    7    orth
    9      0.332D-07      0.160D-08      -342.48482382    295.668205    0.08033    0.05392   -0.22071    0    orth

 Final occupancy:   9

 !RHF STATE 1.1 Energy               -342.484823819313
 Nuclear energy                        17.09171646
 One-electron energy                 -507.41064286
 Two-electron energy                  147.83410257
 Virial quotient                       -1.00047436
 !RHF STATE 1.1 Dipole moment           0.08032878     0.05391601    -0.22071361
 Dipole moment /Debye                   0.20416202     0.13703185    -0.56096131

 Orbital energies:

         1.1          2.1          3.1          4.1          5.1          6.1          7.1          8.1          9.1         10.1
    -79.954159    -7.495062    -5.388345    -5.388345    -5.387468    -0.844141    -0.512765    -0.512765    -0.388170     0.134666

        11.1
      0.147720

 HOMO      9.1    -0.388170 =     -10.5626eV
 LUMO     10.1     0.134666 =       3.6644eV
 LUMO-HOMO         0.522835 =      14.2271eV


 **********************************************************************************************************************************
 DATASETS  * FILE   NREC   LENGTH (MB)   RECORD NAMES
              1      19       19.69       500      610      700      900      950      970     1000      129      960     1100   
                                          VAR    BASINP    GEOM    SYMINP    ZMAT    AOBASIS   BASIS     P2S    ABASIS      S 
                                         1400     1410     1200     1210     1080     1600     1650     1700     2100   
                                           T        V       H0       H01     AOSYM     SMH    MOLCAS    OPER      RHF  

              2       5        0.66       700     1000      520     2100     5600   
                                         GEOM     BASIS   MCVARS     RHF     GINFO   

 PROGRAMS   *        TOTAL       RHF   CCSD(T)       RHF       INT
 CPU TIMES  *        12.59      0.76      1.23      0.35      0.70
 REAL TIME  *        18.96 SEC
 DISK USED  *       155.92 MB      
 SF USED    *        10.16 MB      
 GA USED    *         0.00 MB       (max)       0.00 MB       (current)
 **********************************************************************************************************************************


1PROGRAM * CCSD (Closed-shell coupled cluster)     Authors: C. Hampel, H.-J. Werner, 1991, M. Deegan, P.J. Knowles, 1992


 Convergence thresholds:  THRVAR = 1.00D-12  THRDEN = 1.00D-08

 CCSD(T)     terms to be evaluated (factor= 1.000)


 Number of core orbitals:           5 (   5 )
 Number of closed-shell orbitals:   4 (   4 )
 Number of external orbitals:      67 (  67 )

 Molecular orbitals read from record     2100.1  Type=RHF/CANONICAL (state 1.1)

 Number of N-1 electron functions:               4
 Number of N-2 electron functions:              10
 Number of singly external CSFs:               268
 Number of doubly external CSFs:             36046
 Total number of CSFs:                       36315

 Length of J-op  integral file:               0.00 MB
 Length of K-op  integral file:               0.40 MB
 Length of 3-ext integral record:             0.00 MB

 Memory could be reduced to 2.38 Mwords without degradation in triples

 Integral transformation finished. Total CPU:   0.09 sec, npass=  1  Memory used:   1.36 MW

 Reference energy:                   -342.48482382

 MP2 singlet pair energy:              -0.12900148
 MP2 triplet pair energy:              -0.04142136
 MP2 correlation energy:               -0.17042285
 MP2 total energy:                   -342.65524667

 SCS-MP2 correlation energy:           -0.18057507   (PS=  1.200000  PT=  0.333333)
 SCS-MP2 total energy:               -342.66539889

 ITER.      SQ.NORM     CORR.ENERGY   TOTAL ENERGY   ENERGY CHANGE        DEN1      VAR(S)    VAR(P)  DIIS     TIME  TIME/IT
   1      1.09419459    -0.19686336  -342.68168718    -0.02644051    -0.01881142  0.74D-03  0.20D-02  1  1     0.27     0.10
   2      1.10721416    -0.19913922  -342.68396304    -0.00227586    -0.00864170  0.27D-04  0.13D-03  2  2     0.41     0.12
   3      1.10998058    -0.19918270  -342.68400652    -0.00004348    -0.00100564  0.12D-04  0.13D-04  3  3     0.54     0.14
   4      1.11105929    -0.19920277  -342.68402659    -0.00002007    -0.00023103  0.14D-05  0.11D-05  4  4     0.73     0.20
   5      1.11139105    -0.19920012  -342.68402394     0.00000264    -0.00007389  0.14D-06  0.11D-06  5  5     0.77     0.18
   6      1.11144809    -0.19919486  -342.68401868     0.00000527    -0.00000702  0.22D-07  0.93D-08  6  6     0.90     0.20
   7      1.11146203    -0.19919477  -342.68401859     0.00000008    -0.00000149  0.25D-08  0.90D-09  6  1     0.98     0.19
   8      1.11146261    -0.19919485  -342.68401867    -0.00000007     0.00000035  0.37D-09  0.11D-09  6  2     1.09     0.18
   9      1.11146335    -0.19919483  -342.68401865     0.00000001    -0.00000019  0.30D-10  0.11D-10  6  3     1.16     0.17
  10      1.11146315    -0.19919485  -342.68401867    -0.00000002     0.00000004  0.14D-11  0.12D-11  6  4     1.23     0.16
  11      1.11146314    -0.19919486  -342.68401868    -0.00000001    -0.00000001  0.72D-13  0.11D-12  6  5     1.32     0.15
  12      1.11146315    -0.19919486  -342.68401868    -0.00000000    -0.00000001  0.40D-14  0.11D-13  6  6     1.39     0.15

 Norm of t1 vector:      0.05229061      S-energy:    -0.00000000      T1 diagnostic:  0.01307265
                                                                       D1 diagnostic:  0.02132298

 Total CPU time for triples:      0.15 sec


 RESULTS
 =======

  Reference energy                   -342.484823819314
  CCSD singlet pair energy             -0.156412420240
  CCSD triplet pair energy             -0.042782440497
  CCSD correlation energy              -0.199194860892

  Triples (T) contribution             -0.006827470931
  Total correlation energy             -0.206022331823

  CCSD total energy                  -342.684018680206
  CCSD[T] energy                     -342.691027937914
  CCSD-T energy                      -342.690779852949
 !CCSD(T) total energy               -342.690846151137

 Timing summary (sec):

 STEP                 CPU(USER)    SYS     CPU(TOT)    WALL
 Transformation          0.16      0.01      0.17      0.26
 CCSD iterations         1.23      0.05      1.28      1.76
 Triples                 0.15      0.00      0.15      0.16

 Program statistics:

 Available memory in ccsd:               499998700
 Min. memory needed in ccsd:                180702
 Max. memory used in ccsd:                  202452
 Max. memory used in cckext:                177554 (12 integral passes)



 **********************************************************************************************************************************
 DATASETS  * FILE   NREC   LENGTH (MB)   RECORD NAMES
              1      20       25.37       500      610      700      900      950      970     1000      129      960     1100   
                                          VAR    BASINP    GEOM    SYMINP    ZMAT    AOBASIS   BASIS     P2S    ABASIS      S 
                                         1400     1410     1200     1210     1080     1600     1650     1700     2100     1380   
                                           T        V       H0       H01     AOSYM     SMH    MOLCAS    OPER      RHF     JKOP   

              2       5        0.66       700     1000      520     2100     5600   
                                         GEOM     BASIS   MCVARS     RHF     GINFO   

 PROGRAMS   *        TOTAL   CCSD(T)   CCSD(T)       RHF       INT
 CPU TIMES  *        14.16      1.57      1.23      0.35      0.70
 REAL TIME  *        21.17 SEC
 DISK USED  *       155.92 MB      
 SF USED    *        10.16 MB      
 GA USED    *         0.00 MB       (max)       0.00 MB       (current)
 **********************************************************************************************************************************
 Starting task   6   Incrementing displacement  3 by -1.   CPU=   12.17 sec, Elapsed=   16.03 sec


 Recomputing integrals since geometry changed

1PROGRAM * SEWARD (Integral evaluation for generally contracted gaussian basis sets)     Author: Roland Lindh, 1990

 Geometry written to block  1 of record 700


 Point group  C1  



 ATOMIC COORDINATES

 NR  ATOM    CHARGE       X              Y              Z

   1  P      15.00   -5.924044471    5.453022588    0.124484641
   2  H       1.00   -3.256192627    5.598563616   -0.471292281
   3  H       1.00   -6.524211623    3.928658827   -2.068613693
   4  H       1.00   -6.524218643    7.816826137   -1.118813206

 Bond lengths in Bohr (Angstrom)

 1-2  2.737437815  1-3  2.737437815  1-4  2.737437815
     ( 1.448589708)     ( 1.448589708)     ( 1.448589708)

 Bond angles

  2-1-3   93.95165585   2-1-4   93.95165639   3-1-4   93.95165640

 NUCLEAR CHARGE:                   18
 NUMBER OF PRIMITIVE AOS:         115
 NUMBER OF SYMMETRY AOS:          107
 NUMBER OF CONTRACTIONS:           76   (  76A   )
 NUMBER OF CORE ORBITALS:           5   (   5A   )
 NUMBER OF VALENCE ORBITALS:        7   (   7A   )


 NUCLEAR REPULSION ENERGY   17.18826207

 Eigenvalues of metric

         1 0.182E-02 0.283E-02 0.283E-02 0.412E-02 0.162E-01 0.162E-01 0.176E-01 0.281E-01


 Contracted 2-electron integrals neglected if value below      1.0D-12
 AO integral compression algorithm  1   Integral accuracy      1.0D-12

     27.001 MB (compressed) written to integral file ( 64.0%)

     Node minimum: 6.554 MB, node maximum: 10.748 MB


 NUMBER OF SORTED TWO-ELECTRON INTEGRALS:    1427400.     BUFFER LENGTH:  32768
 NUMBER OF SEGMENTS:   1  SEGMENT LENGTH:    1427400      RECORD LENGTH: 524288

 Memory used in sort:       1.98 MW

 SORT1 READ     5228810. AND WROTE     1369905. INTEGRALS IN      4 RECORDS. CPU TIME:     0.11 SEC, REAL TIME:     0.14 SEC
 SORT2 READ     4108986. AND WROTE     4282201. INTEGRALS IN    111 RECORDS. CPU TIME:     0.04 SEC, REAL TIME:     0.10 SEC

 Node minimum:     1426425.  Node maximum:     1428376. integrals

 OPERATOR DM      FOR CENTER  0  COORDINATES:    0.000000    0.000000    0.000000
1PROGRAM * RHF-SCF (CLOSED SHELL)       Authors: W. Meyer, H.-J. Werner


 NUMBER OF ELECTRONS:       9+    9-    SPACE SYMMETRY=1    SPIN SYMMETRY: Singlet 
 CONVERGENCE THRESHOLDS:    1.00E-07 (Density)    1.00E-09 (Energy)
 MAX. NUMBER OF ITERATIONS:       60
 INTERPOLATION TYPE:            DIIS
 INTERPOLATION STEPS:              2 (START)      1 (STEP)
 LEVEL SHIFTS:                  0.00 (CLOSED)  0.00 (OPEN) 

 Number of closed-shell orbitals:    9 (   9 )


 Molecular orbitals read from record     2100.2  Type=RHF/CANONICAL (state 1.1)

 Molecular orbital dump at record        2100.1

 ITERATION    DDIFF          GRAD             ENERGY        2-EL.EN.            DIPOLE MOMENTS         DIIS   ORB.
    1      0.000D+00      0.000D+00      -342.48570114    295.855061    0.08207    0.05509   -0.22551    0    start
    2      0.000D+00      0.917D-04      -342.48570723    295.878021    0.08254    0.05540   -0.22680    1    diag
    3      0.284D-03      0.183D-04      -342.48570767    295.872627    0.08291    0.05565   -0.22780    2    diag
    4      0.514D-04      0.497D-05      -342.48570771    295.874263    0.08306    0.05575   -0.22822    3    diag
    5      0.118D-04      0.145D-05      -342.48570771    295.873905    0.08311    0.05579   -0.22837    4    diag
    6      0.552D-05      0.264D-06      -342.48570771    295.873901    0.08313    0.05580   -0.22841    5    diag
    7      0.110D-05      0.576D-07      -342.48570771    295.873895    0.08313    0.05580   -0.22841    6    diag
    8      0.259D-06      0.862D-08      -342.48570771    295.873897    0.08313    0.05580   -0.22841    7    orth
    9      0.330D-07      0.160D-08      -342.48570771    295.873897    0.08313    0.05580   -0.22841    0    orth

 Final occupancy:   9

[...]
                                         1400     1410     1200     1210     1080     1600     1650     1700     2100     1380   
                                           T        V       H0       H01     AOSYM     SMH    MOLCAS    OPER      RHF     JKOP   

              2       6        0.67       700     1000      520     2100     5600     5500   
                                         GEOM     BASIS   MCVARS     RHF     GINFO    HINFO   

 PROGRAMS   *        TOTAL   CCSD(T)      OPTG   CCSD(T)       RHF       INT
 CPU TIMES  *       253.22      0.70     68.72      1.23      0.35      0.70
 REAL TIME  *       305.20 SEC
 DISK USED  *       156.48 MB      
 SF USED    *        10.16 MB      
 GA USED    *         0.00 MB       (max)       0.00 MB       (current)
 **********************************************************************************************************************************

 Numerical CCSD(T) hessian completed. CPU-time:   207.36 sec, Elapsed:   213.60 sec

 CCSD(T) hessian saved to record  5300.2

 FREQUENCIES * CALCULATION OF HARMONIC VIBRATIONAL SPECTRA FOR CCSD(T)


 Permanent Dipole Moment [debye]
   1-  3    0.000000    0.000000    0.000000

 Dipole Moment Norm    0.0000000 [debye]

 Dipole Moment Derivatives [debye/ang]
                   1             2             3             4             5             6             7             8
         1     0.0000000     0.0000000     0.0000000     0.0000000     0.0000000     0.0000000     0.0000000     0.0000000
         2     0.0000000     0.0000000     0.0000000     0.0000000     0.0000000     0.0000000     0.0000000     0.0000000
         3     0.0000000     0.0000000     0.0000000     0.0000000     0.0000000     0.0000000     0.0000000     0.0000000
                   9            10            11            12
         1     0.0000000     0.0000000     0.0000000     0.0000000
         2     0.0000000     0.0000000     0.0000000     0.0000000
         3     0.0000000     0.0000000     0.0000000     0.0000000

 Projecting out rotations and translations

   Low Vibration      Wavenumber
        Nr             [1/cm] 
        1                0.00
        2                0.00
        3                0.00
        4                0.00
        5                0.00
        6                0.00

     Vibration        Wavenumber
        Nr             [1/cm] 
        1             1018.08
        2             1142.02
        3             1142.09
        4             2412.73
        5             2421.41
        6             2421.53

 FREQUENCIES * CALCULATION OF NORMAL MODES FOR CCSD(T)


 Atomic Coordinates

  Nr  Atom  Charge       X              Y              Z

   1   P    15.00   -5.919604085    5.455990017    0.112297507
   2   H     1.00   -3.310715020    5.602006587   -0.485449262
   3   H     1.00   -6.499157354    3.972764173   -2.043875668
   4   H     1.00   -6.499190905    7.766310392   -1.117207116

 Frequencies dumped to record   5400.2

 Gradient norm at reference geometry: 0.24146D-04
 
 Molecule is not in standard orientation!
 Symmetry information for normal modes not available!

 Normal Modes

                              1 A         2 A         3 A         4 A         5 A  
 Wavenumbers [cm-1]         1018.08     1142.02     1142.09     2412.73     2421.41
 Intensities [km/mol]          0.00        0.00        0.00        0.00        0.00
 Intensities [relative]        0.00        0.00        0.00        0.00        0.00
           GX1              0.01528    -0.02161     0.00703    -0.00910     0.01602
           GY1              0.01026    -0.00544    -0.02285    -0.00650    -0.02826
           GZ1             -0.04201    -0.00917    -0.00302     0.02536    -0.00138
           GX2              0.12384    -0.09239     0.03008     0.55513    -0.41066
           GY2             -0.12844     0.29699     0.62751     0.02431    -0.03003
           GZ2              0.52648    -0.29082     0.27147    -0.09992     0.08931
           GX3             -0.29679     0.23300    -0.56891    -0.13629     0.09239
           GY3             -0.34376    -0.44365     0.12929    -0.32861     0.21276
           GZ3              0.32106     0.23393     0.05618    -0.43726     0.31324
           GX4             -0.29656     0.52335     0.32275    -0.13913    -0.17403
           GY4              0.15703     0.31383    -0.05471     0.50396     0.68566
           GZ4              0.44333     0.33876    -0.23500    -0.24221    -0.36024

                              6 A  
 Wavenumbers [cm-1]         2421.53
 Intensities [km/mol]          0.00
 Intensities [relative]        0.00
           GX1             -0.02618
           GY1             -0.01421
           GZ1             -0.01303
           GX2              0.66560
           GY2              0.03148
           GZ2             -0.14937
           GX3              0.15052
           GY3              0.39374
           GZ3              0.56145
           GX4             -0.01152
           GY4              0.01140
           GZ4             -0.01180


 Normal Modes of low/zero frequencies

                                  1           2           3           4           5
 Wavenumbers [cm-1]            0.00        0.00        0.00        0.00        0.00
 Intensities [km/mol]          0.00        0.00        0.00        0.00        0.00
 Intensities [relative]        0.00        0.00        0.00        0.00        0.00
           GX1             -0.00005     0.07638     0.15270     0.01416     0.00336
           GY1              0.00294    -0.04346    -0.01629     0.00187    -0.00530
           GZ1             -0.02116    -0.07917     0.04232    -0.01364     0.14431
           GX2              0.11950     0.13737     0.08691    -0.03884     0.05625
           GY2             -0.39394     0.27674    -0.18057     0.40535     0.18926
           GZ2              0.40367     0.26520    -0.28497    -0.14639     0.42269
           GX3              0.07412     0.54917    -0.21008     0.02404     0.33789
           GY3              0.34606    -0.14508     0.01464     0.45796    -0.01789
           GZ3             -0.27713    -0.13635     0.11855    -0.33003     0.06305
           GX4              0.60292    -0.05101     0.14282    -0.29591    -0.03158
           GY4              0.24285    -0.13274     0.01690     0.23702    -0.03029
           GZ4              0.14541    -0.18687     0.10933     0.57440     0.11381

                                  6
 Wavenumbers [cm-1]            0.00
 Intensities [km/mol]          0.00
 Intensities [relative]        0.00
           GX1              0.03387
           GY1              0.16850
           GZ1             -0.00977
           GX2              0.04616
           GY2              0.16331
           GZ2              0.04262
           GX3              0.10178
           GY3              0.03265
           GZ3              0.06542
           GX4              0.03559
           GY4              0.08811
           GZ4             -0.16164


 Zero point energy:  0.02405257 [H]     5278.93 [1/CM]       63.15 [KJ/MOL]

 Recomputing wavefunction at initial geometry


 Recomputing integrals since geometry changed

1PROGRAM * SEWARD (Integral evaluation for generally contracted gaussian basis sets)     Author: Roland Lindh, 1990

 Geometry written to block  1 of record 700


 Point group  C1  



 ATOMIC COORDINATES

 NR  ATOM    CHARGE       X              Y              Z

   1  P      15.00   -5.919604085    5.455990017    0.112297507
   2  H       1.00   -3.310715020    5.602006587   -0.485449262
   3  H       1.00   -6.499157354    3.972764173   -2.043875668
   4  H       1.00   -6.499190905    7.766310392   -1.117207116

 Bond lengths in Bohr (Angstrom)

 1-2  2.680470890  1-3  2.680470790  1-4  2.680519116
     ( 1.418444109)     ( 1.418444057)     ( 1.418469630)

 Bond angles

  2-1-3   93.50871704   2-1-4   93.50929329   3-1-4   93.50929599

 NUCLEAR CHARGE:                   18
 NUMBER OF PRIMITIVE AOS:         115
 NUMBER OF SYMMETRY AOS:          107
 NUMBER OF CONTRACTIONS:           76   (  76A   )
 NUMBER OF CORE ORBITALS:           5   (   5A   )
 NUMBER OF VALENCE ORBITALS:        7   (   7A   )


 NUCLEAR REPULSION ENERGY   17.55622672

 Eigenvalues of metric

         1 0.156E-02 0.253E-02 0.253E-02 0.392E-02 0.157E-01 0.157E-01 0.171E-01 0.274E-01


 Contracted 2-electron integrals neglected if value below      1.0D-12
 AO integral compression algorithm  1   Integral accuracy      1.0D-12

     27.263 MB (compressed) written to integral file ( 64.7%)

     Node minimum: 8.126 MB, node maximum: 10.486 MB


 NUMBER OF SORTED TWO-ELECTRON INTEGRALS:    1427400.     BUFFER LENGTH:  32768
 NUMBER OF SEGMENTS:   1  SEGMENT LENGTH:    1427400      RECORD LENGTH: 524288

 Memory used in sort:       1.98 MW

 SORT1 READ     5228810. AND WROTE     1370118. INTEGRALS IN      4 RECORDS. CPU TIME:     0.07 SEC, REAL TIME:     0.08 SEC
 SORT2 READ     4109731. AND WROTE     4282201. INTEGRALS IN    120 RECORDS. CPU TIME:     0.04 SEC, REAL TIME:     0.06 SEC

 Node minimum:     1426425.  Node maximum:     1428376. integrals

 OPERATOR DM      FOR CENTER  0  COORDINATES:    0.000000    0.000000    0.000000
1PROGRAM * RHF-SCF (CLOSED SHELL)       Authors: W. Meyer, H.-J. Werner


 NUMBER OF ELECTRONS:       9+    9-    SPACE SYMMETRY=1    SPIN SYMMETRY: Singlet 
 CONVERGENCE THRESHOLDS:    1.00E-07 (Density)    1.00E-09 (Energy)
 MAX. NUMBER OF ITERATIONS:       60
 INTERPOLATION TYPE:            DIIS
 INTERPOLATION STEPS:              2 (START)      1 (STEP)
 LEVEL SHIFTS:                  0.00 (CLOSED)  0.00 (OPEN) 

 Number of closed-shell orbitals:    9 (   9 )


 Molecular orbitals read from record     2100.2  Type=RHF/CANONICAL (state 1.1)

 Molecular orbital dump at record        2100.2

 ITERATION    DDIFF          GRAD             ENERGY        2-EL.EN.            DIPOLE MOMENTS         DIIS   ORB.
    1      0.000D+00      0.000D+00      -342.48734116    296.656394    0.08839    0.05931   -0.24284    0    start
    2      0.000D+00      0.632D-09      -342.48734116    296.656394    0.08839    0.05931   -0.24284    0    orth

 Final occupancy:   9

 !RHF STATE 1.1 Energy               -342.487341155406
 Nuclear energy                        17.55622672
 One-electron energy                 -508.37176469
 Two-electron energy                  148.32819681
 Virial quotient                       -1.00009227
 !RHF STATE 1.1 Dipole moment           0.08838576     0.05931223    -0.24283917
 Dipole moment /Debye                   0.22463947     0.15074677    -0.61719519

 Orbital energies:

         1.1          2.1          3.1          4.1          5.1          6.1          7.1          8.1          9.1         10.1
    -79.944341    -7.487777    -5.381163    -5.381163    -5.380251    -0.854486    -0.520433    -0.520430    -0.387642     0.138006

        11.1
      0.153468

 HOMO      9.1    -0.387642 =     -10.5483eV
 LUMO     10.1     0.138006 =       3.7553eV
 LUMO-HOMO         0.525648 =      14.3036eV


 **********************************************************************************************************************************
 DATASETS  * FILE   NREC   LENGTH (MB)   RECORD NAMES
              1      18       19.35       500      610      700      900      950      970     1000      129      960     1100   
                                          VAR    BASINP    GEOM    SYMINP    ZMAT    AOBASIS   BASIS     P2S    ABASIS      S 
                                         1400     1410     1200     1210     1080     1600     1650     1700   
                                           T        V       H0       H01     AOSYM     SMH    MOLCAS    OPER   

              2       8        0.67       700     1000      520     2100     5600     5300     5400     5450   
                                         GEOM     BASIS   MCVARS     RHF     GINFO    HESS     FREQ     NMOD   

 PROGRAMS   *        TOTAL       RHF      OPTG   CCSD(T)       RHF       INT
 CPU TIMES  *       253.58      0.36     68.72      1.23      0.35      0.70
 REAL TIME  *       305.62 SEC
 DISK USED  *       156.48 MB      
 SF USED    *        10.16 MB      
 GA USED    *         0.00 MB       (max)       0.00 MB       (current)
 **********************************************************************************************************************************


1PROGRAM * CCSD (Closed-shell coupled cluster)     Authors: C. Hampel, H.-J. Werner, 1991, M. Deegan, P.J. Knowles, 1992


 Convergence thresholds:  THRVAR = 1.00D-12  THRDEN = 1.00D-08

 CCSD(T)     terms to be evaluated (factor= 1.000)


 Number of core orbitals:           5 (   5 )
 Number of closed-shell orbitals:   4 (   4 )
 Number of external orbitals:      67 (  67 )

 Molecular orbitals read from record     2100.2  Type=RHF/CANONICAL (state 1.1)

 Number of N-1 electron functions:               4
 Number of N-2 electron functions:              10
 Number of singly external CSFs:               268
 Number of doubly external CSFs:             36046
 Total number of CSFs:                       36315

 Length of J-op  integral file:               0.00 MB
 Length of K-op  integral file:               0.40 MB
 Length of 3-ext integral record:             0.00 MB

 Memory could be reduced to 2.38 Mwords without degradation in triples

 Integral transformation finished. Total CPU:   0.07 sec, npass=  1  Memory used:   1.36 MW

 Reference energy:                   -342.48734116

 MP2 singlet pair energy:              -0.12857664
 MP2 triplet pair energy:              -0.04160338
 MP2 correlation energy:               -0.17018002
 MP2 total energy:                   -342.65752117

 SCS-MP2 correlation energy:           -0.18017852   (PS=  1.200000  PT=  0.333333)
 SCS-MP2 total energy:               -342.66751967

 ITER.      SQ.NORM     CORR.ENERGY   TOTAL ENERGY   ENERGY CHANGE        DEN1      VAR(S)    VAR(P)  DIIS     TIME  TIME/IT
   1      1.09195789    -0.19628728  -342.68362844    -0.02610727    -0.01872050  0.70D-03  0.19D-02  1  1     0.11     0.04
   2      1.10420129    -0.19841592  -342.68575708    -0.00212864    -0.00835200  0.27D-04  0.12D-03  2  2     0.15     0.04
   3      1.10670719    -0.19845115  -342.68579231    -0.00003523    -0.00092271  0.12D-04  0.11D-04  3  3     0.18     0.04
   4      1.10767539    -0.19846802  -342.68580918    -0.00001687    -0.00020967  0.13D-05  0.94D-06  4  4     0.22     0.04
   5      1.10797383    -0.19846471  -342.68580587     0.00000331    -0.00006804  0.11D-06  0.89D-07  5  5     0.25     0.04
   6      1.10802118    -0.19845998  -342.68580114     0.00000473    -0.00000581  0.16D-07  0.72D-08  6  6     0.29     0.04
   7      1.10803276    -0.19845993  -342.68580108     0.00000005    -0.00000134  0.17D-08  0.67D-09  6  1     0.33     0.04
   8      1.10803321    -0.19845997  -342.68580112    -0.00000004     0.00000026  0.26D-09  0.80D-10  6  2     0.36     0.04
   9      1.10803382    -0.19845995  -342.68580110     0.00000002    -0.00000016  0.23D-10  0.79D-11  6  3     0.40     0.04
  10      1.10803364    -0.19845996  -342.68580112    -0.00000002     0.00000004  0.11D-11  0.87D-12  6  4     0.43     0.04
  11      1.10803363    -0.19845997  -342.68580112    -0.00000000    -0.00000001  0.51D-13  0.80D-13  6  5     0.47     0.04
  12      1.10803365    -0.19845997  -342.68580112    -0.00000000    -0.00000001  0.28D-14  0.76D-14  6  6     0.51     0.04

 Norm of t1 vector:      0.05092566      S-energy:    -0.00000000      T1 diagnostic:  0.01273142
                                                                       D1 diagnostic:  0.02067464

 Total CPU time for triples:      0.15 sec


 RESULTS
 =======

  Reference energy                   -342.487341155406
  CCSD singlet pair energy             -0.155357094879
  CCSD triplet pair energy             -0.043102873800
  CCSD correlation energy              -0.198459969412

  Triples (T) contribution             -0.006666247057
  Total correlation energy             -0.205126216469

  CCSD total energy                  -342.685801124818
  CCSD[T] energy                     -342.692637595510
  CCSD-T energy                      -342.692405802181
 !CCSD(T) total energy               -342.692467371874

 Timing summary (sec):

 STEP                 CPU(USER)    SYS     CPU(TOT)    WALL
 Transformation          0.07      0.01      0.08      0.09
 CCSD iterations         0.44      0.06      0.50      0.47
 Triples                 0.15      0.00      0.15      0.16

 Program statistics:

 Available memory in ccsd:               499999836
 Min. memory needed in ccsd:                180702
 Max. memory used in ccsd:                  202452
 Max. memory used in cckext:                177554 (12 integral passes)



 **********************************************************************************************************************************
 DATASETS  * FILE   NREC   LENGTH (MB)   RECORD NAMES
              1      19       25.03       500      610      700      900      950      970     1000      129      960     1100   
                                          VAR    BASINP    GEOM    SYMINP    ZMAT    AOBASIS   BASIS     P2S    ABASIS      S 
                                         1400     1410     1200     1210     1080     1600     1650     1700     1380   
                                           T        V       H0       H01     AOSYM     SMH    MOLCAS    OPER     JKOP   

              2       8        0.67       700     1000      520     2100     5600     5300     5400     5450   
                                         GEOM     BASIS   MCVARS     RHF     GINFO    HESS     FREQ     NMOD   

 PROGRAMS   *        TOTAL   CCSD(T)      OPTG   CCSD(T)       RHF       INT
 CPU TIMES  *       254.26      0.68     68.72      1.23      0.35      0.70
 REAL TIME  *       306.38 SEC
 DISK USED  *       156.48 MB      
 SF USED    *        10.16 MB      
 GA USED    *         0.00 MB       (max)       0.00 MB       (current)
 **********************************************************************************************************************************


 **********************************************************************************************************************************
 DATASETS  * FILE   NREC   LENGTH (MB)   RECORD NAMES
              1      19       25.03       500      610      700      900      950      970     1000      129      960     1100   
                                          VAR    BASINP    GEOM    SYMINP    ZMAT    AOBASIS   BASIS     P2S    ABASIS      S 
                                         1400     1410     1200     1210     1080     1600     1650     1700     1380   
                                           T        V       H0       H01     AOSYM     SMH    MOLCAS    OPER     JKOP   

              2       8        0.67       700     1000      520     2100     5600     5300     5400     5450   
                                         GEOM     BASIS   MCVARS     RHF     GINFO    HESS     FREQ     NMOD   

 PROGRAMS   *        TOTAL      FREQ      OPTG   CCSD(T)       RHF       INT
 CPU TIMES  *       254.26    183.05     68.72      1.23      0.35      0.70
 REAL TIME  *       306.38 SEC
 DISK USED  *       156.48 MB      
 SF USED    *        10.16 MB      
 GA USED    *         0.00 MB       (max)       0.00 MB       (current)
 **********************************************************************************************************************************

 CCSD(T)/cc-pVTZ energy=   -342.692467371874

   OPTG(CCSD(T))        CCSD(T)         RHF-SCF 
   -342.69246737   -342.69115475   -342.48528460
 **********************************************************************************************************************************
 Variable memory released
