
 Primary working directories    : /scratch/kmoore
 Secondary working directories  : /scratch/kmoore
 Wavefunction directory         : /scratch/kmoore/
 Main file repository           : /scratch/kmoore/

 SHA1      : b6b3a4772808bb2d43777f23454e145ddfe12dc3
 NAME      : 2015.1.1
 ARCHNAME  : linux/x86_64
 FC        : /soft/mvapich2/2.2b_psm/intel-15.0/bin/mpif90
 BLASLIB   : -L/soft/intel/15.0.1/composer_xe_2015.0.090/mkl/lib/intel64 -lmkl_intel_ilp64 -lmkl_sequential -lmkl_core
 id        : anlgov

 Nodes     nprocs
 b450         3
 Number of processes for MPI-2 version of Molpro:   nprocs(total)=    4   nprocs(compute)=    3   nprocs(helper)=    1

 Using customized tuning parameters: mindgm=1; mindgv=20; mindgc=4; mindgr=1; noblas=0; minvec=7
 default implementation of scratch files=sf  

 memory,500,m
 GTHRESH,energy=1d-8
 
 nosym
 angstrom
 geometry = {
 O       -2.9854885843      2.6803324328     -0.0431592574
 H       -1.9961622361      2.6721608255     -0.0010880071
 H       -3.2748539490      2.4997624054      0.8864995723
 }
 
 basis=cc-pVTZ
 {rhf}
 {ccsd(t)}
 {optg}
 {freq}
 

 Variables initialized (889), CPU time= 0.01 sec
 Commands  initialized (702), CPU time= 0.01 sec, 572 directives.
 Default parameters read. Elapsed time= 0.15 sec

 Checking input...
 Passed
1


                                         ***  PROGRAM SYSTEM MOLPRO  ***
                                       Copyright, TTI GmbH Stuttgart, 2015
                                    Version 2015.1 linked Jan  8 2016 07:59:11


 **********************************************************************************************************************************
 LABEL *                                                                                 
  64 bit mpp version                                                                     DATE: 13-Dec-18          TIME: 13:21:42  
 **********************************************************************************************************************************

 SHA1:             b6b3a4772808bb2d43777f23454e145ddfe12dc3
 **********************************************************************************************************************************

 THRESHOLDS:

 ZERO    =  1.00D-12  ONEINT  =  1.00D-12  TWOINT  =  1.00D-11  PREFAC  =  1.00D-14  LOCALI  =  1.00D-09  EORDER  =  1.00D-04
 ENERGY  =  1.00D-08  ETEST   =  0.00D+00  EDENS   =  0.00D+00  THRDEDEF=  1.00D-06  GRADIENT=  1.00D-02  STEP    =  1.00D-03
 ORBITAL =  1.00D-05  CIVEC   =  1.00D-05  COEFF   =  1.00D-04  PRINTCI =  5.00D-02  PUNCHCI =  9.90D+01  OPTGRAD =  3.00D-04
 OPTENERG=  1.00D-06  OPTSTEP =  3.00D-04  THRGRAD =  1.00D-10  COMPRESS=  1.00D-11  VARMIN  =  1.00D-07  VARMAX  =  1.00D-03
 THRDOUB =  0.00D+00  THRDIV  =  1.00D-05  THRRED  =  1.00D-07  THRPSP  =  1.00D+00  THRDC   =  1.00D-10  THRCS   =  1.00D-10
 THRNRM  =  1.00D-08  THREQ   =  0.00D+00  THRDE   =  1.00D+00  THRREF  =  1.00D-05  SPARFAC =  1.00D+00  THRDLP  =  1.00D-07
 THRDIA  =  1.00D-10  THRDLS  =  1.00D-07  THRGPS  =  0.00D+00  THRKEX  =  0.00D+00  THRDIS  =  2.00D-01  THRVAR  =  1.00D-10
 THRLOC  =  1.00D-06  THRGAP  =  1.00D-06  THRLOCT = -1.00D+00  THRGAPT = -1.00D+00  THRORB  =  1.00D-06  THRMLTP =  0.00D+00
 THRCPQCI=  1.00D-10  KEXTA   =  0.00D+00  THRCOARS=  0.00D+00  SYMTOL  =  1.00D-06  GRADTOL =  1.00D-06  THROVL  =  1.00D-08
 THRORTH =  1.00D-08  GRID    =  1.00D-06  GRIDMAX =  1.00D-03  DTMAX   =  0.00D+00  THROCCDE=  1.00D-01  THROCCDE=  1.00D-01



 Variable memory set to  500000000 words,  buffer space   230000 words

 ZSYMEL=NOSYM
 ZUNIT=ANG
 

Geometry recognized as XYZ

 SETTING BASIS          =    CC-PVTZ


 Recomputing integrals since basis changed


 Using spherical harmonics

 Library entry O      S cc-pVTZ              selected for orbital group  1
 Library entry O      P cc-pVTZ              selected for orbital group  1
 Library entry O      D cc-pVTZ              selected for orbital group  1
 Library entry O      F cc-pVTZ              selected for orbital group  1
 Library entry H      S cc-pVTZ              selected for orbital group  2
 Library entry H      P cc-pVTZ              selected for orbital group  2
 Library entry H      D cc-pVTZ              selected for orbital group  2

1PROGRAM * SEWARD (Integral evaluation for generally contracted gaussian basis sets)     Author: Roland Lindh, 1990

 Geometry written to block  1 of record 700


 Point group  C1  



 ATOMIC COORDINATES

 NR  ATOM    CHARGE       X              Y              Z

   1  O       8.00   -5.641755772    5.065094221   -0.081559176
   2  H       1.00   -3.772199926    5.049652121   -0.002056035
   3  H       1.00   -6.188577062    4.723866323    1.675241401

 Bond lengths in Bohr (Angstrom)

 1-2  1.871309239  1-3  1.871309239
     ( 0.990254204)     ( 0.990254204)

 Bond angles

  2-1-3  104.51000906

 NUCLEAR CHARGE:                   10
 NUMBER OF PRIMITIVE AOS:          81
 NUMBER OF SYMMETRY AOS:           74
 NUMBER OF CONTRACTIONS:           58   (  58A   )
 NUMBER OF CORE ORBITALS:           1   (   1A   )
 NUMBER OF VALENCE ORBITALS:        6   (   6A   )


 NUCLEAR REPULSION ENERGY    8.88806420

 Eigenvalues of metric

         1 0.277E-02 0.500E-02 0.645E-02 0.903E-02 0.119E-01 0.421E-01 0.443E-01 0.486E-01


 Contracted 2-electron integrals neglected if value below      1.0D-12
 AO integral compression algorithm  1   Integral accuracy      1.0D-12

     10.748 MB (compressed) written to integral file ( 72.4%)

     Node minimum: 2.621 MB, node maximum: 4.194 MB


 NUMBER OF SORTED TWO-ELECTRON INTEGRALS:     488205.     BUFFER LENGTH:  32768
 NUMBER OF SEGMENTS:   1  SEGMENT LENGTH:     488205      RECORD LENGTH: 524288

 Memory used in sort:       1.05 MW

 SORT1 READ     1852866. AND WROTE      452887. INTEGRALS IN      2 RECORDS. CPU TIME:     0.04 SEC, REAL TIME:     0.05 SEC
 SORT2 READ     1358424. AND WROTE     1464616. INTEGRALS IN     48 RECORDS. CPU TIME:     0.04 SEC, REAL TIME:     0.05 SEC

 Node minimum:      487635.  Node maximum:      488776. integrals

 OPERATOR DM      FOR CENTER  0  COORDINATES:    0.000000    0.000000    0.000000


 **********************************************************************************************************************************
 DATASETS  * FILE   NREC   LENGTH (MB)   RECORD NAMES
              1      18       19.23       500      610      700      900      950      970     1000      129      960     1100   
                                          VAR    BASINP    GEOM    SYMINP    ZMAT    AOBASIS   BASIS     P2S    ABASIS      S 
                                         1400     1410     1200     1210     1080     1600     1650     1700   
                                           T        V       H0       H01     AOSYM     SMH    MOLCAS    OPER   

 PROGRAMS   *        TOTAL       INT
 CPU TIMES  *         0.71      0.46
 REAL TIME  *         1.21 SEC
 DISK USED  *        33.47 MB      
 GA USED    *         0.00 MB       (max)       0.00 MB       (current)
 **********************************************************************************************************************************

1PROGRAM * RHF-SCF (CLOSED SHELL)       Authors: W. Meyer, H.-J. Werner


 NUMBER OF ELECTRONS:       5+    5-    SPACE SYMMETRY=1    SPIN SYMMETRY: Singlet 
 CONVERGENCE THRESHOLDS:    1.00E-06 (Density)    1.00E-09 (Energy)
 MAX. NUMBER OF ITERATIONS:       60
 INTERPOLATION TYPE:            DIIS
 INTERPOLATION STEPS:              2 (START)      1 (STEP)
 LEVEL SHIFTS:                  0.00 (CLOSED)  0.00 (OPEN) 



 Orbital guess generated from atomic densities. Full valence occupancy:    7

 Molecular orbital dump at record        2100.2

 Initial occupancy:   5

 ITERATION    DDIFF          GRAD             ENERGY        2-EL.EN.            DIPOLE MOMENTS         DIIS   ORB.
    1      0.000D+00      0.000D+00       -76.01386088     77.342850    0.68402   -0.18444    0.94960    0    start
    2      0.000D+00      0.134D-01       -76.04187462     73.808158    0.41073   -0.11075    0.57020    1    diag
    3      0.179D-01      0.824D-02       -76.05269975     75.331562    0.47286   -0.12750    0.65645    2    diag
    4      0.615D-02      0.779D-03       -76.05291042     75.250175    0.46860   -0.12636    0.65055    3    diag
    5      0.895D-03      0.233D-03       -76.05293520     75.262595    0.46654   -0.12580    0.64767    4    diag
    6      0.329D-03      0.452D-04       -76.05293656     75.260858    0.46600   -0.12566    0.64693    5    diag
    7      0.771D-04      0.780D-05       -76.05293660     75.260991    0.46589   -0.12563    0.64678    6    diag
    8      0.156D-04      0.111D-05       -76.05293660     75.260955    0.46588   -0.12562    0.64676    7    diag
    9      0.212D-05      0.119D-06       -76.05293660     75.260951    0.46588   -0.12562    0.64676    8    diag
   10      0.232D-06      0.297D-07       -76.05293660     75.260953    0.46588   -0.12562    0.64676    0    orth

 Final occupancy:   5

 !RHF STATE 1.1 Energy                -76.052936596640
 Nuclear energy                         8.88806420
 One-electron energy                 -122.57147740
 Two-electron energy                   37.63047661
 Virial quotient                       -1.00224557
 !RHF STATE 1.1 Dipole moment           0.46587663    -0.12562174     0.64675939
 Dipole moment /Debye                   1.18406273    -0.31927770     1.64379072

 Orbital energies:

         1.1          2.1          3.1          4.1          5.1          6.1          7.1
    -20.560482    -1.329275    -0.692105    -0.571458    -0.501941     0.138632     0.200849

 HOMO      5.1    -0.501941 =     -13.6585eV
 LUMO      6.1     0.138632 =       3.7724eV
 LUMO-HOMO         0.640573 =      17.4309eV


 **********************************************************************************************************************************
 DATASETS  * FILE   NREC   LENGTH (MB)   RECORD NAMES
              1      18       19.23       500      610      700      900      950      970     1000      129      960     1100   
                                          VAR    BASINP    GEOM    SYMINP    ZMAT    AOBASIS   BASIS     P2S    ABASIS      S 
                                         1400     1410     1200     1210     1080     1600     1650     1700   
                                           T        V       H0       H01     AOSYM     SMH    MOLCAS    OPER   

              2       4        0.47       700     1000      520     2100   
                                         GEOM     BASIS   MCVARS     RHF  

 PROGRAMS   *        TOTAL       RHF       INT
 CPU TIMES  *         0.95      0.24      0.46
 REAL TIME  *         1.49 SEC
 DISK USED  *        93.40 MB      
 SF USED    *         0.01 MB      
 GA USED    *         0.00 MB       (max)       0.00 MB       (current)
 **********************************************************************************************************************************


1PROGRAM * CCSD (Closed-shell coupled cluster)     Authors: C. Hampel, H.-J. Werner, 1991, M. Deegan, P.J. Knowles, 1992


 Convergence thresholds:  THRVAR = 1.00D-12  THRDEN = 1.00D-08

 CCSD(T)     terms to be evaluated (factor= 1.000)


 Number of core orbitals:           1 (   1 )
 Number of closed-shell orbitals:   4 (   4 )
 Number of external orbitals:      53 (  53 )

 Molecular orbitals read from record     2100.2  Type=RHF/CANONICAL (state 1.1)

 Number of N-1 electron functions:               4
 Number of N-2 electron functions:              10
 Number of singly external CSFs:               212
 Number of doubly external CSFs:             22578
 Total number of CSFs:                       22791

 Length of J-op  integral file:               0.00 MB
 Length of K-op  integral file:               0.23 MB
 Length of 3-ext integral record:             0.00 MB

 Memory could be reduced to 1.34 Mwords without degradation in triples

 Integral transformation finished. Total CPU:   0.03 sec, npass=  1  Memory used:   0.67 MW

 Reference energy:                    -76.05293660

 MP2 singlet pair energy:              -0.16786556
 MP2 triplet pair energy:              -0.09601188
 MP2 correlation energy:               -0.26387744
 MP2 total energy:                    -76.31681404

 SCS-MP2 correlation energy:           -0.26117940   (PS=  1.200000  PT=  0.333333)
 SCS-MP2 total energy:                -76.31411599

 ITER.      SQ.NORM     CORR.ENERGY   TOTAL ENERGY   ENERGY CHANGE        DEN1      VAR(S)    VAR(P)  DIIS     TIME  TIME/IT
   1      1.06248020    -0.26903230   -76.32196890    -0.00515486     0.00015924  0.49D-03  0.90D-03  1  1     0.13     0.15
   2      1.06591856    -0.26948744   -76.32242404    -0.00045514    -0.00472692  0.90D-05  0.10D-03  2  2     0.18     0.14
   3      1.06713110    -0.26956513   -76.32250172    -0.00007769    -0.00091900  0.20D-05  0.49D-05  3  3     0.20     0.11
   4      1.06745675    -0.26957804   -76.32251464    -0.00001292    -0.00018655  0.16D-06  0.26D-06  4  4     0.22     0.09
   5      1.06750407    -0.26957520   -76.32251180     0.00000284    -0.00002241  0.55D-07  0.16D-07  5  5     0.28     0.10
   6      1.06751294    -0.26957507   -76.32251166     0.00000014    -0.00000221  0.81D-08  0.18D-08  6  6     0.33     0.10
   7      1.06751542    -0.26957522   -76.32251182    -0.00000016    -0.00000039  0.12D-08  0.26D-09  6  1     0.41     0.11
   8      1.06751628    -0.26957524   -76.32251183    -0.00000001     0.00000054  0.42D-10  0.20D-10  6  2     0.50     0.11
   9      1.06751655    -0.26957521   -76.32251181     0.00000002    -0.00000010  0.19D-11  0.19D-11  6  3     0.57     0.11
  10      1.06751661    -0.26957521   -76.32251180     0.00000001     0.00000003  0.63D-13  0.10D-12  6  4     0.58     0.10
  11      1.06751662    -0.26957521   -76.32251180     0.00000000    -0.00000001  0.24D-14  0.79D-14  6  5     0.60     0.10

 Norm of t1 vector:      0.02787332      S-energy:     0.00000000      T1 diagnostic:  0.00696833
                                                                       D1 diagnostic:  0.01163449


 Total CPU time for triples:      0.04 sec


 RESULTS
 =======

  Reference energy                    -76.052936596640
  CCSD singlet pair energy             -0.184491614856
  CCSD triplet pair energy             -0.085083592780
  CCSD correlation energy              -0.269575206851

  Triples (T) contribution             -0.007921644714
  Total correlation energy             -0.277496851565

  CCSD total energy                   -76.322511803491
  CCSD[T] energy                      -76.330642761891
  CCSD-T energy                       -76.330285699790
 !CCSD(T) total energy                -76.330433448205

 Timing summary (sec):

 STEP                 CPU(USER)    SYS     CPU(TOT)    WALL
 Transformation          0.04      0.01      0.05      0.10
 CCSD iterations         0.56      0.05      0.61      1.08
 Triples                 0.04      0.00      0.04      0.07

 Program statistics:

 Available memory in ccsd:               499999836
 Min. memory needed in ccsd:                111654
 Max. memory used in ccsd:                  126268
 Max. memory used in cckext:                118262 (11 integral passes)



 **********************************************************************************************************************************
 DATASETS  * FILE   NREC   LENGTH (MB)   RECORD NAMES
              1      19       22.12       500      610      700      900      950      970     1000      129      960     1100   
                                          VAR    BASINP    GEOM    SYMINP    ZMAT    AOBASIS   BASIS     P2S    ABASIS      S 
                                         1400     1410     1200     1210     1080     1600     1650     1700     1380   
                                           T        V       H0       H01     AOSYM     SMH    MOLCAS    OPER     JKOP   

              2       4        0.47       700     1000      520     2100   
                                         GEOM     BASIS   MCVARS     RHF  

 PROGRAMS   *        TOTAL   CCSD(T)       RHF       INT
 CPU TIMES  *         1.61      0.66      0.24      0.46
 REAL TIME  *         2.77 SEC
 DISK USED  *        98.78 MB      
 SF USED    *         5.27 MB      
 GA USED    *         0.00 MB       (max)       0.00 MB       (current)
 **********************************************************************************************************************************


 PROGRAM * OPT (Geometry optimization)     Authors: F. Eckert and H.-J. Werner


 BFGS update of hessian

 Running default procedure: RHF-SCF000  CCSD(T)

 Geometry optimization using default procedure for command CCSD(T)

 Geometry written to block  1 of record 700
 

 Generated   2 symmetrical displacements

 Number of displacements for numerical gradient:      4

 Starting numerical gradient for CCSD(T)
 Starting task   1   Incrementing displacement  1 by  1.   CPU=    0.00 sec, Elapsed=    0.00 sec


 Recomputing integrals since geometry changed

1PROGRAM * SEWARD (Integral evaluation for generally contracted gaussian basis sets)     Author: Roland Lindh, 1990

 Geometry written to block  1 of record 700


 Point group  C1  



 ATOMIC COORDINATES

 NR  ATOM    CHARGE       X              Y              Z

   1  O       8.00   -5.644679253    5.065882526   -0.085617737
   2  H       1.00   -3.775267340    5.048647330    0.003117100
   3  H       1.00   -6.182586167    4.724082809    1.674126827

 Bond lengths in Bohr (Angstrom)

 1-2  1.871596064  1-3  1.871596064
     ( 0.990405985)     ( 0.990405985)

 Bond angles

  2-1-3  103.93437567

 NUCLEAR CHARGE:                   10
 NUMBER OF PRIMITIVE AOS:          81
 NUMBER OF SYMMETRY AOS:           74
 NUMBER OF CONTRACTIONS:           58   (  58A   )
 NUMBER OF CORE ORBITALS:           1   (   1A   )
 NUMBER OF VALENCE ORBITALS:        6   (   6A   )


 NUCLEAR REPULSION ENERGY    8.88802534

 Eigenvalues of metric

         1 0.278E-02 0.500E-02 0.645E-02 0.903E-02 0.119E-01 0.421E-01 0.444E-01 0.487E-01


 Contracted 2-electron integrals neglected if value below      1.0D-12
 AO integral compression algorithm  1   Integral accuracy      1.0D-12

     10.748 MB (compressed) written to integral file ( 72.6%)

     Node minimum: 2.359 MB, node maximum: 4.194 MB


 NUMBER OF SORTED TWO-ELECTRON INTEGRALS:     488205.     BUFFER LENGTH:  32768
 NUMBER OF SEGMENTS:   1  SEGMENT LENGTH:     488205      RECORD LENGTH: 524288

 Memory used in sort:       1.05 MW

 SORT1 READ     1852866. AND WROTE      452889. INTEGRALS IN      2 RECORDS. CPU TIME:     0.04 SEC, REAL TIME:     0.10 SEC
 SORT2 READ     1358430. AND WROTE     1464616. INTEGRALS IN     48 RECORDS. CPU TIME:     0.02 SEC, REAL TIME:     0.05 SEC

 Node minimum:      487635.  Node maximum:      488776. integrals

 OPERATOR DM      FOR CENTER  0  COORDINATES:    0.000000    0.000000    0.000000
1PROGRAM * RHF-SCF (CLOSED SHELL)       Authors: W. Meyer, H.-J. Werner


 NUMBER OF ELECTRONS:       5+    5-    SPACE SYMMETRY=1    SPIN SYMMETRY: Singlet 
 CONVERGENCE THRESHOLDS:    1.00E-07 (Density)    1.00E-09 (Energy)
 MAX. NUMBER OF ITERATIONS:       60
 INTERPOLATION TYPE:            DIIS
 INTERPOLATION STEPS:              2 (START)      1 (STEP)
 LEVEL SHIFTS:                  0.00 (CLOSED)  0.00 (OPEN) 

 Number of closed-shell orbitals:    5 (   5 )


 Molecular orbitals read from record     2100.2  Type=RHF/CANONICAL (state 1.1)

 Molecular orbital dump at record        2100.1

 ITERATION    DDIFF          GRAD             ENERGY        2-EL.EN.            DIPOLE MOMENTS         DIIS   ORB.
    1      0.000D+00      0.000D+00       -76.05290446     75.259427    0.46826   -0.12627    0.65007    0    start
    2      0.000D+00      0.127D-03       -76.05290806     75.256661    0.46819   -0.12625    0.64997    1    diag
    3      0.213D-03      0.244D-04       -76.05290829     75.258379    0.46815   -0.12623    0.64992    2    diag
    4      0.451D-04      0.637D-05       -76.05290831     75.256999    0.46805   -0.12621    0.64977    3    diag
    5      0.923D-05      0.311D-05       -76.05290831     75.257430    0.46803   -0.12620    0.64976    4    diag
    6      0.425D-05      0.471D-06       -76.05290831     75.257414    0.46802   -0.12620    0.64974    5    diag
    7      0.914D-06      0.902D-07       -76.05290831     75.257415    0.46802   -0.12620    0.64974    6    diag
    8      0.196D-06      0.149D-07       -76.05290831     75.257415    0.46802   -0.12620    0.64974    7    orth
    9      0.283D-07      0.318D-08       -76.05290831     75.257415    0.46802   -0.12620    0.64974    0    orth

 Final occupancy:   5

 !RHF STATE 1.1 Energy                -76.052908311694
 Nuclear energy                         8.88802534
 One-electron energy                 -122.56964110
 Two-electron energy                   37.62870745
 Virial quotient                       -1.00223955
 !RHF STATE 1.1 Dipole moment           0.46802050    -0.12619983     0.64973564
 Dipole moment /Debye                   1.18951153    -0.32074695     1.65135510

 Orbital energies:

         1.1          2.1          3.1          4.1          5.1          6.1          7.1
    -20.560810    -1.329616    -0.690997    -0.572555    -0.502134     0.138527     0.200932

 HOMO      5.1    -0.502134 =     -13.6638eV
 LUMO      6.1     0.138527 =       3.7695eV
 LUMO-HOMO         0.640661 =      17.4333eV


 **********************************************************************************************************************************
 DATASETS  * FILE   NREC   LENGTH (MB)   RECORD NAMES
              1      19       19.47       500      610      700      900      950      970     1000      129      960     1100   
                                          VAR    BASINP    GEOM    SYMINP    ZMAT    AOBASIS   BASIS     P2S    ABASIS      S 
                                         1400     1410     1200     1210     1080     1600     1650     1700     2100   
                                           T        V       H0       H01     AOSYM     SMH    MOLCAS    OPER      RHF  

              2       5        0.54       700     1000      520     2100     5600   
                                         GEOM     BASIS   MCVARS     RHF     GINFO   

 PROGRAMS   *        TOTAL       RHF   CCSD(T)       RHF       INT
 CPU TIMES  *         2.50      0.50      0.66      0.24      0.46
 REAL TIME  *         4.84 SEC
 DISK USED  *       104.26 MB      
 SF USED    *         5.27 MB      
 GA USED    *         0.00 MB       (max)       0.00 MB       (current)
 **********************************************************************************************************************************


1PROGRAM * CCSD (Closed-shell coupled cluster)     Authors: C. Hampel, H.-J. Werner, 1991, M. Deegan, P.J. Knowles, 1992


 Convergence thresholds:  THRVAR = 1.00D-12  THRDEN = 1.00D-08

 CCSD(T)     terms to be evaluated (factor= 1.000)


 Number of core orbitals:           1 (   1 )
 Number of closed-shell orbitals:   4 (   4 )
 Number of external orbitals:      53 (  53 )

 Molecular orbitals read from record     2100.1  Type=RHF/CANONICAL (state 1.1)

 Number of N-1 electron functions:               4
 Number of N-2 electron functions:              10
 Number of singly external CSFs:               212
 Number of doubly external CSFs:             22578
 Total number of CSFs:                       22791

 Length of J-op  integral file:               0.00 MB
 Length of K-op  integral file:               0.23 MB
 Length of 3-ext integral record:             0.00 MB

 Memory could be reduced to 1.34 Mwords without degradation in triples

 Integral transformation finished. Total CPU:   0.03 sec, npass=  1  Memory used:   0.67 MW

 Reference energy:                    -76.05290831

 MP2 singlet pair energy:              -0.16790703
 MP2 triplet pair energy:              -0.09604013
 MP2 correlation energy:               -0.26394716
 MP2 total energy:                    -76.31685547

 SCS-MP2 correlation energy:           -0.26124674   (PS=  1.200000  PT=  0.333333)
 SCS-MP2 total energy:                -76.31415505

 ITER.      SQ.NORM     CORR.ENERGY   TOTAL ENERGY   ENERGY CHANGE        DEN1      VAR(S)    VAR(P)  DIIS     TIME  TIME/IT
   1      1.06251547    -0.26909217   -76.32200049    -0.00514501     0.00017687  0.50D-03  0.90D-03  1  1     0.09     0.02
   2      1.06595917    -0.26954689   -76.32245520    -0.00045471    -0.00473219  0.90D-05  0.10D-03  2  2     0.18     0.07
   3      1.06717483    -0.26962475   -76.32253306    -0.00007786    -0.00092067  0.20D-05  0.49D-05  3  3     0.21     0.06
   4      1.06750159    -0.26963765   -76.32254596    -0.00001290    -0.00018708  0.16D-06  0.26D-06  4  4     0.22     0.06
   5      1.06754893    -0.26963481   -76.32254312     0.00000285    -0.00002243  0.54D-07  0.16D-07  5  5     0.26     0.06
   6      1.06755778    -0.26963466   -76.32254297     0.00000015    -0.00000222  0.80D-08  0.18D-08  6  6     0.28     0.06
   7      1.06756023    -0.26963481   -76.32254313    -0.00000016    -0.00000039  0.12D-08  0.25D-09  6  1     0.30     0.05
   8      1.06756108    -0.26963483   -76.32254314    -0.00000001     0.00000054  0.42D-10  0.19D-10  6  2     0.32     0.05
   9      1.06756135    -0.26963481   -76.32254312     0.00000002    -0.00000010  0.19D-11  0.19D-11  6  3     0.36     0.06
  10      1.06756141    -0.26963480   -76.32254311     0.00000001     0.00000003  0.61D-13  0.10D-12  6  4     0.41     0.06
  11      1.06756142    -0.26963480   -76.32254311     0.00000000    -0.00000001  0.22D-14  0.79D-14  6  5     0.46     0.06

 Norm of t1 vector:      0.02793289      S-energy:     0.00000000      T1 diagnostic:  0.00698322
                                                                       D1 diagnostic:  0.01164295

 Total CPU time for triples:      0.07 sec


 RESULTS
 =======

  Reference energy                    -76.052908311694
  CCSD singlet pair energy             -0.184535960684
  CCSD triplet pair energy             -0.085098840988
  CCSD correlation energy              -0.269634800403

  Triples (T) contribution             -0.007929521875
  Total correlation energy             -0.277564322278

  CCSD total energy                   -76.322543112096
  CCSD[T] energy                      -76.330682572954
  CCSD-T energy                       -76.330324530965
 !CCSD(T) total energy                -76.330472633971

 Timing summary (sec):

 STEP                 CPU(USER)    SYS     CPU(TOT)    WALL
 Transformation          0.06      0.01      0.07      0.08
 CCSD iterations         0.40      0.03      0.43      0.71
 Triples                 0.07      0.00      0.07      0.11

 Program statistics:

 Available memory in ccsd:               499998800
 Min. memory needed in ccsd:                111654
 Max. memory used in ccsd:                  126268
 Max. memory used in cckext:                118262 (11 integral passes)



 **********************************************************************************************************************************
 DATASETS  * FILE   NREC   LENGTH (MB)   RECORD NAMES
              1      20       22.37       500      610      700      900      950      970     1000      129      960     1100   
                                          VAR    BASINP    GEOM    SYMINP    ZMAT    AOBASIS   BASIS     P2S    ABASIS      S 
                                         1400     1410     1200     1210     1080     1600     1650     1700     2100     1380   
                                           T        V       H0       H01     AOSYM     SMH    MOLCAS    OPER      RHF     JKOP   

              2       5        0.54       700     1000      520     2100     5600   
                                         GEOM     BASIS   MCVARS     RHF     GINFO   

 PROGRAMS   *        TOTAL   CCSD(T)   CCSD(T)       RHF       INT
 CPU TIMES  *         3.08      0.56      0.66      0.24      0.46
 REAL TIME  *         5.79 SEC
 DISK USED  *       104.58 MB      
 SF USED    *         5.27 MB      
 GA USED    *         0.00 MB       (max)       0.00 MB       (current)
 **********************************************************************************************************************************
 Starting task   2   Incrementing displacement  1 by -1.   CPU=    1.25 sec, Elapsed=    1.84 sec


 Recomputing integrals since geometry changed

1PROGRAM * SEWARD (Integral evaluation for generally contracted gaussian basis sets)     Author: Roland Lindh, 1990

 Geometry written to block  1 of record 700


 Point group  C1  



 ATOMIC COORDINATES

 NR  ATOM    CHARGE       X              Y              Z

   1  O       8.00   -5.638832291    5.064305916   -0.077500615
   2  H       1.00   -3.769132513    5.050656912   -0.007229171
   3  H       1.00   -6.194567956    4.723649836    1.676355975

 Bond lengths in Bohr (Angstrom)

 1-2  1.871069649  1-3  1.871069649
     ( 0.990127418)     ( 0.990127418)

 Bond angles

  2-1-3  105.08580440

 NUCLEAR CHARGE:                   10
 NUMBER OF PRIMITIVE AOS:          81
 NUMBER OF SYMMETRY AOS:           74
 NUMBER OF CONTRACTIONS:           58   (  58A   )
 NUMBER OF CORE ORBITALS:           1   (   1A   )
 NUMBER OF VALENCE ORBITALS:        6   (   6A   )


 NUCLEAR REPULSION ENERGY    8.88789708

 Eigenvalues of metric

         1 0.276E-02 0.499E-02 0.646E-02 0.904E-02 0.118E-01 0.421E-01 0.442E-01 0.486E-01


 Contracted 2-electron integrals neglected if value below      1.0D-12
 AO integral compression algorithm  1   Integral accuracy      1.0D-12

     10.748 MB (compressed) written to integral file ( 72.1%)

     Node minimum: 2.097 MB, node maximum: 4.719 MB


 NUMBER OF SORTED TWO-ELECTRON INTEGRALS:     488205.     BUFFER LENGTH:  32768
 NUMBER OF SEGMENTS:   1  SEGMENT LENGTH:     488205      RECORD LENGTH: 524288

 Memory used in sort:       1.05 MW

 SORT1 READ     1852866. AND WROTE      452885. INTEGRALS IN      2 RECORDS. CPU TIME:     0.04 SEC, REAL TIME:     0.06 SEC
 SORT2 READ     1358419. AND WROTE     1464616. INTEGRALS IN     54 RECORDS. CPU TIME:     0.03 SEC, REAL TIME:     0.04 SEC

 Node minimum:      487635.  Node maximum:      488776. integrals

 OPERATOR DM      FOR CENTER  0  COORDINATES:    0.000000    0.000000    0.000000
1PROGRAM * RHF-SCF (CLOSED SHELL)       Authors: W. Meyer, H.-J. Werner


 NUMBER OF ELECTRONS:       5+    5-    SPACE SYMMETRY=1    SPIN SYMMETRY: Singlet 
 CONVERGENCE THRESHOLDS:    1.00E-07 (Density)    1.00E-09 (Energy)
 MAX. NUMBER OF ITERATIONS:       60
 INTERPOLATION TYPE:            DIIS
 INTERPOLATION STEPS:              2 (START)      1 (STEP)
 LEVEL SHIFTS:                  0.00 (CLOSED)  0.00 (OPEN) 

 Number of closed-shell orbitals:    5 (   5 )


 Molecular orbitals read from record     2100.2  Type=RHF/CANONICAL (state 1.1)

 Molecular orbital dump at record        2100.1

 ITERATION    DDIFF          GRAD             ENERGY        2-EL.EN.            DIPOLE MOMENTS         DIIS   ORB.
    1      0.000D+00      0.000D+00       -76.05293931     75.262392    0.46350   -0.12498    0.64346    0    start
    2      0.000D+00      0.127D-03       -76.05294289     75.264797    0.46355   -0.12500    0.64353    1    diag
    3      0.211D-03      0.241D-04       -76.05294313     75.263339    0.46360   -0.12501    0.64360    2    diag
    4      0.448D-04      0.588D-05       -76.05294314     75.264598    0.46370   -0.12503    0.64373    3    diag
    5      0.926D-05      0.304D-05       -76.05294314     75.264163    0.46371   -0.12504    0.64375    4    diag
    6      0.395D-05      0.470D-06       -76.05294314     75.264181    0.46372   -0.12504    0.64377    5    diag
    7      0.914D-06      0.906D-07       -76.05294314     75.264180    0.46372   -0.12504    0.64377    6    diag
    8      0.196D-06      0.153D-07       -76.05294314     75.264180    0.46372   -0.12504    0.64377    7    orth
    9      0.292D-07      0.325D-08       -76.05294314     75.264180    0.46372   -0.12504    0.64377    0    orth

 Final occupancy:   5

 !RHF STATE 1.1 Energy                -76.052943144045
 Nuclear energy                         8.88789708
 One-electron energy                 -122.57293030
 Two-electron energy                   37.63209007
 Virial quotient                       -1.00225253
 !RHF STATE 1.1 Dipole moment           0.46372361    -0.12504119     0.64377042
 Dipole moment /Debye                   1.17859065    -0.31780218     1.63619403

 Orbital energies:

         1.1          2.1          3.1          4.1          5.1          6.1          7.1
    -20.560155    -1.328924    -0.693192    -0.570358    -0.501745     0.138729     0.200764

 HOMO      5.1    -0.501745 =     -13.6532eV
 LUMO      6.1     0.138729 =       3.7750eV
 LUMO-HOMO         0.640474 =      17.4282eV


 **********************************************************************************************************************************
 DATASETS  * FILE   NREC   LENGTH (MB)   RECORD NAMES
              1      19       19.47       500      610      700      900      950      970     1000      129      960     1100   
                                          VAR    BASINP    GEOM    SYMINP    ZMAT    AOBASIS   BASIS     P2S    ABASIS      S 
                                         1400     1410     1200     1210     1080     1600     1650     1700     2100   
                                           T        V       H0       H01     AOSYM     SMH    MOLCAS    OPER      RHF  

              2       5        0.54       700     1000      520     2100     5600   
                                         GEOM     BASIS   MCVARS     RHF     GINFO   

 PROGRAMS   *        TOTAL       RHF   CCSD(T)       RHF       INT
 CPU TIMES  *         3.61      0.53      0.66      0.24      0.46
 REAL TIME  *         6.43 SEC
 DISK USED  *       105.07 MB      
 SF USED    *         5.27 MB      
 GA USED    *         0.00 MB       (max)       0.00 MB       (current)
 **********************************************************************************************************************************


1PROGRAM * CCSD (Closed-shell coupled cluster)     Authors: C. Hampel, H.-J. Werner, 1991, M. Deegan, P.J. Knowles, 1992


 Convergence thresholds:  THRVAR = 1.00D-12  THRDEN = 1.00D-08

 CCSD(T)     terms to be evaluated (factor= 1.000)


 Number of core orbitals:           1 (   1 )
 Number of closed-shell orbitals:   4 (   4 )
 Number of external orbitals:      53 (  53 )

 Molecular orbitals read from record     2100.1  Type=RHF/CANONICAL (state 1.1)

 Number of N-1 electron functions:               4
 Number of N-2 electron functions:              10
 Number of singly external CSFs:               212
 Number of doubly external CSFs:             22578
 Total number of CSFs:                       22791

 Length of J-op  integral file:               0.00 MB
 Length of K-op  integral file:               0.23 MB
 Length of 3-ext integral record:             0.00 MB

 Memory could be reduced to 1.34 Mwords without degradation in triples

 Integral transformation finished. Total CPU:   0.03 sec, npass=  1  Memory used:   0.67 MW

 Reference energy:                    -76.05294314

 MP2 singlet pair energy:              -0.16782585
 MP2 triplet pair energy:              -0.09598537
 MP2 correlation energy:               -0.26381122
 MP2 total energy:                    -76.31675436

 SCS-MP2 correlation energy:           -0.26111525   (PS=  1.200000  PT=  0.333333)
 SCS-MP2 total energy:                -76.31405839

 ITER.      SQ.NORM     CORR.ENERGY   TOTAL ENERGY   ENERGY CHANGE        DEN1      VAR(S)    VAR(P)  DIIS     TIME  TIME/IT
   1      1.06244692    -0.26897522   -76.32191836    -0.00516400     0.00014266  0.49D-03  0.90D-03  1  1     0.07     0.03
   2      1.06588021    -0.26943078   -76.32237393    -0.00045556    -0.00472188  0.90D-05  0.10D-03  2  2     0.11     0.03
   3      1.06708983    -0.26950831   -76.32245146    -0.00007753    -0.00091742  0.20D-05  0.48D-05  3  3     0.15     0.04
   4      1.06741442    -0.26952124   -76.32246439    -0.00001293    -0.00018605  0.16D-06  0.26D-06  4  4     0.20     0.05
   5      1.06746173    -0.26951841   -76.32246155     0.00000283    -0.00002240  0.55D-07  0.16D-07  5  5     0.24     0.05
   6      1.06747062    -0.26951828   -76.32246142     0.00000013    -0.00000220  0.82D-08  0.19D-08  6  6     0.28     0.05
   7      1.06747314    -0.26951843   -76.32246158    -0.00000015    -0.00000040  0.12D-08  0.26D-09  6  1     0.33     0.05
   8      1.06747401    -0.26951845   -76.32246159    -0.00000001     0.00000054  0.42D-10  0.20D-10  6  2     0.37     0.05
   9      1.06747429    -0.26951843   -76.32246157     0.00000002    -0.00000010  0.19D-11  0.19D-11  6  3     0.40     0.04
  10      1.06747434    -0.26951842   -76.32246157     0.00000001     0.00000003  0.64D-13  0.11D-12  6  4     0.43     0.04
  11      1.06747435    -0.26951842   -76.32246157     0.00000000    -0.00000001  0.25D-14  0.79D-14  6  5     0.47     0.04

 Norm of t1 vector:      0.02781545      S-energy:     0.00000000      T1 diagnostic:  0.00695386
                                                                       D1 diagnostic:  0.01162619

 Total CPU time for triples:      0.12 sec


 RESULTS
 =======

  Reference energy                    -76.052943144045
  CCSD singlet pair energy             -0.184449189068
  CCSD triplet pair energy             -0.085069233923
  CCSD correlation energy              -0.269518421209

  Triples (T) contribution             -0.007914133817
  Total correlation energy             -0.277432555026

  CCSD total energy                   -76.322461565254
  CCSD[T] energy                      -76.330584409100
  CCSD-T energy                       -76.330228289361
 !CCSD(T) total energy                -76.330375699071

 Timing summary (sec):

 STEP                 CPU(USER)    SYS     CPU(TOT)    WALL
 Transformation          0.04      0.01      0.05      0.06
 CCSD iterations         0.43      0.03      0.46      0.49
 Triples                 0.12      0.00      0.12      0.12

 Program statistics:

 Available memory in ccsd:               499998800
 Min. memory needed in ccsd:                111654
 Max. memory used in ccsd:                  126268
 Max. memory used in cckext:                118262 (11 integral passes)



 **********************************************************************************************************************************
 DATASETS  * FILE   NREC   LENGTH (MB)   RECORD NAMES
              1      20       22.37       500      610      700      900      950      970     1000      129      960     1100   
                                          VAR    BASINP    GEOM    SYMINP    ZMAT    AOBASIS   BASIS     P2S    ABASIS      S 
                                         1400     1410     1200     1210     1080     1600     1650     1700     2100     1380   
                                           T        V       H0       H01     AOSYM     SMH    MOLCAS    OPER      RHF     JKOP   

              2       5        0.54       700     1000      520     2100     5600   
                                         GEOM     BASIS   MCVARS     RHF     GINFO   

 PROGRAMS   *        TOTAL   CCSD(T)   CCSD(T)       RHF       INT
 CPU TIMES  *         4.27      0.63      0.66      0.24      0.46
 REAL TIME  *         7.17 SEC
 DISK USED  *       105.07 MB      
 SF USED    *         5.27 MB      
 GA USED    *         0.00 MB       (max)       0.00 MB       (current)
 **********************************************************************************************************************************
 Starting task   3   Incrementing displacement  2 by  1.   CPU=    2.53 sec, Elapsed=    3.22 sec


 Recomputing integrals since geometry changed

1PROGRAM * SEWARD (Integral evaluation for generally contracted gaussian basis sets)     Author: Roland Lindh, 1990

 Geometry written to block  1 of record 700


 Point group  C1  



 ATOMIC COORDINATES

 NR  ATOM    CHARGE       X              Y              Z

   1  O       8.00   -5.638057719    5.064097056   -0.076425304
   2  H       1.00   -3.777629457    5.049667965   -0.002137610
   3  H       1.00   -6.186845585    4.724847643    1.670189104

 Bond lengths in Bohr (Angstrom)

 1-2  1.861966749  1-3  1.861966750
     ( 0.985310371)     ( 0.985310371)

 Bond angles

  2-1-3  104.81236558

 NUCLEAR CHARGE:                   10
 NUMBER OF PRIMITIVE AOS:          81
 NUMBER OF SYMMETRY AOS:           74
 NUMBER OF CONTRACTIONS:           58   (  58A   )
 NUMBER OF CORE ORBITALS:           1   (   1A   )
 NUMBER OF VALENCE ORBITALS:        6   (   6A   )


 NUCLEAR REPULSION ENERGY    8.93196933

 Eigenvalues of metric

         1 0.274E-02 0.495E-02 0.635E-02 0.881E-02 0.117E-01 0.419E-01 0.439E-01 0.485E-01


 Contracted 2-electron integrals neglected if value below      1.0D-12
 AO integral compression algorithm  1   Integral accuracy      1.0D-12

     10.486 MB (compressed) written to integral file ( 74.2%)

     Node minimum: 3.146 MB, node maximum: 3.932 MB


 NUMBER OF SORTED TWO-ELECTRON INTEGRALS:     488205.     BUFFER LENGTH:  32768
 NUMBER OF SEGMENTS:   1  SEGMENT LENGTH:     488205      RECORD LENGTH: 524288

 Memory used in sort:       1.05 MW

 SORT1 READ     1852866. AND WROTE      452887. INTEGRALS IN      2 RECORDS. CPU TIME:     0.05 SEC, REAL TIME:     0.13 SEC
 SORT2 READ     1358424. AND WROTE     1464616. INTEGRALS IN     45 RECORDS. CPU TIME:     0.02 SEC, REAL TIME:     0.05 SEC

 Node minimum:      487635.  Node maximum:      488776. integrals

 OPERATOR DM      FOR CENTER  0  COORDINATES:    0.000000    0.000000    0.000000
1PROGRAM * RHF-SCF (CLOSED SHELL)       Authors: W. Meyer, H.-J. Werner


 NUMBER OF ELECTRONS:       5+    5-    SPACE SYMMETRY=1    SPIN SYMMETRY: Singlet 
 CONVERGENCE THRESHOLDS:    1.00E-07 (Density)    1.00E-09 (Energy)
 MAX. NUMBER OF ITERATIONS:       60
 INTERPOLATION TYPE:            DIIS
 INTERPOLATION STEPS:              2 (START)      1 (STEP)
 LEVEL SHIFTS:                  0.00 (CLOSED)  0.00 (OPEN) 

 Number of closed-shell orbitals:    5 (   5 )


 Molecular orbitals read from record     2100.2  Type=RHF/CANONICAL (state 1.1)

 Molecular orbital dump at record        2100.1

 ITERATION    DDIFF          GRAD             ENERGY        2-EL.EN.            DIPOLE MOMENTS         DIIS   ORB.
    1      0.000D+00      0.000D+00       -76.05378937     75.304693    0.46266   -0.12475    0.64230    0    start
    2      0.000D+00      0.272D-03       -76.05380393     75.343057    0.46335   -0.12494    0.64325    1    diag
    3      0.563D-03      0.900D-04       -76.05380538     75.324259    0.46324   -0.12491    0.64309    2    diag
    4      0.114D-03      0.377D-04       -76.05380573     75.331513    0.46375   -0.12505    0.64380    3    diag
    5      0.378D-04      0.778D-05       -76.05380577     75.330956    0.46384   -0.12507    0.64394    4    diag
    6      0.115D-04      0.198D-05       -76.05380577     75.331005    0.46390   -0.12509    0.64401    5    diag
    7      0.381D-05      0.410D-06       -76.05380577     75.331005    0.46390   -0.12509    0.64402    6    diag
    8      0.766D-06      0.547D-07       -76.05380577     75.331004    0.46390   -0.12509    0.64402    7    orth
    9      0.101D-06      0.931D-08       -76.05380577     75.331005    0.46390   -0.12509    0.64402    8    diag
   10      0.170D-07      0.123D-08       -76.05380577     75.331005    0.46390   -0.12509    0.64402    0    orth

 Final occupancy:   5

 !RHF STATE 1.1 Energy                -76.053805771190
 Nuclear energy                         8.93196933
 One-electron energy                 -122.65127736
 Two-electron energy                   37.66550226
 Virial quotient                       -1.00203252
 !RHF STATE 1.1 Dipole moment           0.46390211    -0.12508932     0.64401823
 Dipole moment /Debye                   1.17904432    -0.31792451     1.63682385

 Orbital energies:

         1.1          2.1          3.1          4.1          5.1          6.1          7.1
    -20.559479    -1.331420    -0.695240    -0.571804    -0.502194     0.139249     0.201304

 HOMO      5.1    -0.502194 =     -13.6654eV
 LUMO      6.1     0.139249 =       3.7892eV
 LUMO-HOMO         0.641443 =      17.4546eV


 **********************************************************************************************************************************
 DATASETS  * FILE   NREC   LENGTH (MB)   RECORD NAMES
              1      19       19.47       500      610      700      900      950      970     1000      129      960     1100   
                                          VAR    BASINP    GEOM    SYMINP    ZMAT    AOBASIS   BASIS     P2S    ABASIS      S 
                                         1400     1410     1200     1210     1080     1600     1650     1700     2100   
                                           T        V       H0       H01     AOSYM     SMH    MOLCAS    OPER      RHF  

              2       5        0.54       700     1000      520     2100     5600   
                                         GEOM     BASIS   MCVARS     RHF     GINFO   

 PROGRAMS   *        TOTAL       RHF   CCSD(T)       RHF       INT
 CPU TIMES  *         4.78      0.51      0.66      0.24      0.46
 REAL TIME  *         8.03 SEC
 DISK USED  *       105.07 MB      
 SF USED    *         5.27 MB      
 GA USED    *         0.00 MB       (max)       0.00 MB       (current)
 **********************************************************************************************************************************


1PROGRAM * CCSD (Closed-shell coupled cluster)     Authors: C. Hampel, H.-J. Werner, 1991, M. Deegan, P.J. Knowles, 1992


 Convergence thresholds:  THRVAR = 1.00D-12  THRDEN = 1.00D-08

 CCSD(T)     terms to be evaluated (factor= 1.000)


 Number of core orbitals:           1 (   1 )
 Number of closed-shell orbitals:   4 (   4 )
 Number of external orbitals:      53 (  53 )

 Molecular orbitals read from record     2100.1  Type=RHF/CANONICAL (state 1.1)

 Number of N-1 electron functions:               4
 Number of N-2 electron functions:              10
 Number of singly external CSFs:               212
 Number of doubly external CSFs:             22578
 Total number of CSFs:                       22791

 Length of J-op  integral file:               0.00 MB
 Length of K-op  integral file:               0.23 MB
 Length of 3-ext integral record:             0.00 MB

 Memory could be reduced to 1.34 Mwords without degradation in triples

 Integral transformation finished. Total CPU:   0.06 sec, npass=  1  Memory used:   0.67 MW

 Reference energy:                    -76.05380577

 MP2 singlet pair energy:              -0.16759626
 MP2 triplet pair energy:              -0.09588636
 MP2 correlation energy:               -0.26348262
 MP2 total energy:                    -76.31728839

 SCS-MP2 correlation energy:           -0.26077814   (PS=  1.200000  PT=  0.333333)
 SCS-MP2 total energy:                -76.31458391

 ITER.      SQ.NORM     CORR.ENERGY   TOTAL ENERGY   ENERGY CHANGE        DEN1      VAR(S)    VAR(P)  DIIS     TIME  TIME/IT
   1      1.06215858    -0.26868283   -76.32248860    -0.00520021     0.00005615  0.49D-03  0.89D-03  1  1     0.21     0.04
   2      1.06554456    -0.26913227   -76.32293804    -0.00044944    -0.00468381  0.88D-05  0.98D-04  2  2     0.25     0.05
   3      1.06672434    -0.26920717   -76.32301294    -0.00007490    -0.00090078  0.19D-05  0.47D-05  3  3     0.27     0.05
   4      1.06703947    -0.26921962   -76.32302539    -0.00001245    -0.00018200  0.15D-06  0.25D-06  4  4     0.33     0.07
   5      1.06708478    -0.26921682   -76.32302259     0.00000280    -0.00002173  0.51D-07  0.15D-07  5  5     0.35     0.06
   6      1.06709314    -0.26921669   -76.32302246     0.00000013    -0.00000212  0.77D-08  0.17D-08  6  6     0.37     0.06
   7      1.06709549    -0.26921684   -76.32302261    -0.00000015    -0.00000038  0.11D-08  0.24D-09  6  1     0.39     0.05
   8      1.06709631    -0.26921685   -76.32302262    -0.00000001     0.00000052  0.40D-10  0.18D-10  6  2     0.40     0.05
   9      1.06709657    -0.26921683   -76.32302260     0.00000002    -0.00000009  0.18D-11  0.17D-11  6  3     0.42     0.04
  10      1.06709663    -0.26921683   -76.32302260     0.00000001     0.00000003  0.60D-13  0.95D-13  6  4     0.43     0.04
  11      1.06709664    -0.26921682   -76.32302260     0.00000000    -0.00000001  0.24D-14  0.72D-14  6  5     0.45     0.04

 Norm of t1 vector:      0.02755949      S-energy:     0.00000000      T1 diagnostic:  0.00688987
                                                                       D1 diagnostic:  0.01149113

 Total CPU time for triples:      0.05 sec


 RESULTS
 =======

  Reference energy                    -76.053805771190
  CCSD singlet pair energy             -0.184154155438
  CCSD triplet pair energy             -0.085062670917
  CCSD correlation energy              -0.269216824797

  Triples (T) contribution             -0.007875838797
  Total correlation energy             -0.277092663594

  CCSD total energy                   -76.323022595987
  CCSD[T] energy                      -76.331104743607
  CCSD-T energy                       -76.330752667222
 !CCSD(T) total energy                -76.330898434784

 Timing summary (sec):

 STEP                 CPU(USER)    SYS     CPU(TOT)    WALL
 Transformation          0.15      0.01      0.16      0.25
 CCSD iterations         0.30      0.02      0.32      0.46
 Triples                 0.05      0.00      0.05      0.06

 Program statistics:

 Available memory in ccsd:               499998800
 Min. memory needed in ccsd:                111654
 Max. memory used in ccsd:                  126268
 Max. memory used in cckext:                118262 (11 integral passes)



 **********************************************************************************************************************************
 DATASETS  * FILE   NREC   LENGTH (MB)   RECORD NAMES
              1      20       22.37       500      610      700      900      950      970     1000      129      960     1100   
                                          VAR    BASINP    GEOM    SYMINP    ZMAT    AOBASIS   BASIS     P2S    ABASIS      S 
                                         1400     1410     1200     1210     1080     1600     1650     1700     2100     1380   
                                           T        V       H0       H01     AOSYM     SMH    MOLCAS    OPER      RHF     JKOP   

              2       5        0.54       700     1000      520     2100     5600   
                                         GEOM     BASIS   MCVARS     RHF     GINFO   

 PROGRAMS   *        TOTAL   CCSD(T)   CCSD(T)       RHF       INT
 CPU TIMES  *         5.31      0.53      0.66      0.24      0.46
 REAL TIME  *         8.83 SEC
 DISK USED  *       105.07 MB      
 SF USED    *         5.27 MB      
 GA USED    *         0.00 MB       (max)       0.00 MB       (current)
 **********************************************************************************************************************************
 Starting task   4   Incrementing displacement  2 by -1.   CPU=    3.67 sec, Elapsed=    4.88 sec


 Recomputing integrals since geometry changed

1PROGRAM * SEWARD (Integral evaluation for generally contracted gaussian basis sets)     Author: Roland Lindh, 1990

 Geometry written to block  1 of record 700


 Point group  C1  



 ATOMIC COORDINATES

 NR  ATOM    CHARGE       X              Y              Z

   1  O       8.00   -5.645453826    5.066091386   -0.086693048
   2  H       1.00   -3.766770396    5.049636276   -0.001974461
   3  H       1.00   -6.190308538    4.722885002    1.680293698

 Bond lengths in Bohr (Angstrom)

 1-2  1.880664628  1-3  1.880664628
     ( 0.995204862)     ( 0.995204862)

 Bond angles

  2-1-3  104.21065862

 NUCLEAR CHARGE:                   10
 NUMBER OF PRIMITIVE AOS:          81
 NUMBER OF SYMMETRY AOS:           74
 NUMBER OF CONTRACTIONS:           58   (  58A   )
 NUMBER OF CORE ORBITALS:           1   (   1A   )
 NUMBER OF VALENCE ORBITALS:        6   (   6A   )


 NUCLEAR REPULSION ENERGY    8.84453289

 Eigenvalues of metric

         1 0.281E-02 0.504E-02 0.655E-02 0.927E-02 0.120E-01 0.424E-01 0.447E-01 0.488E-01


 Contracted 2-electron integrals neglected if value below      1.0D-12
 AO integral compression algorithm  1   Integral accuracy      1.0D-12

     10.748 MB (compressed) written to integral file ( 72.3%)

     Node minimum: 2.621 MB, node maximum: 4.981 MB


 NUMBER OF SORTED TWO-ELECTRON INTEGRALS:     488205.     BUFFER LENGTH:  32768
 NUMBER OF SEGMENTS:   1  SEGMENT LENGTH:     488205      RECORD LENGTH: 524288

 Memory used in sort:       1.05 MW

 SORT1 READ     1852866. AND WROTE      452888. INTEGRALS IN      2 RECORDS. CPU TIME:     0.16 SEC, REAL TIME:     0.17 SEC
 SORT2 READ     1358428. AND WROTE     1464616. INTEGRALS IN     30 RECORDS. CPU TIME:     0.02 SEC, REAL TIME:     0.03 SEC

 Node minimum:      487635.  Node maximum:      488776. integrals

 OPERATOR DM      FOR CENTER  0  COORDINATES:    0.000000    0.000000    0.000000
1PROGRAM * RHF-SCF (CLOSED SHELL)       Authors: W. Meyer, H.-J. Werner


 NUMBER OF ELECTRONS:       5+    5-    SPACE SYMMETRY=1    SPIN SYMMETRY: Singlet 
 CONVERGENCE THRESHOLDS:    1.00E-07 (Density)    1.00E-09 (Energy)
 MAX. NUMBER OF ITERATIONS:       60
 INTERPOLATION TYPE:            DIIS
 INTERPOLATION STEPS:              2 (START)      1 (STEP)
 LEVEL SHIFTS:                  0.00 (CLOSED)  0.00 (OPEN) 

 Number of closed-shell orbitals:    5 (   5 )


 Molecular orbitals read from record     2100.2  Type=RHF/CANONICAL (state 1.1)

 Molecular orbital dump at record        2100.1

 ITERATION    DDIFF          GRAD             ENERGY        2-EL.EN.            DIPOLE MOMENTS         DIIS   ORB.
    1      0.000D+00      0.000D+00       -76.05197307     75.217497    0.46910   -0.12649    0.65123    0    start
    2      0.000D+00      0.270D-03       -76.05198746     75.179282    0.46838   -0.12630    0.65024    1    diag
    3      0.556D-03      0.898D-04       -76.05198890     75.198125    0.46852   -0.12633    0.65043    2    diag
    4      0.113D-03      0.378D-04       -76.05198926     75.190792    0.46800   -0.12619    0.64970    3    diag
    5      0.379D-04      0.788D-05       -76.05198930     75.191357    0.46790   -0.12617    0.64956    4    diag
    6      0.116D-04      0.201D-05       -76.05198930     75.191308    0.46784   -0.12615    0.64949    5    diag
    7      0.389D-05      0.420D-06       -76.05198930     75.191307    0.46784   -0.12615    0.64948    6    diag
    8      0.785D-06      0.564D-07       -76.05198930     75.191308    0.46784   -0.12615    0.64948    7    orth
    9      0.104D-06      0.992D-08       -76.05198930     75.191308    0.46784   -0.12615    0.64948    8    diag
   10      0.179D-07      0.132D-08       -76.05198930     75.191308    0.46784   -0.12615    0.64948    0    orth

 Final occupancy:   5

 !RHF STATE 1.1 Energy                -76.051989302543
 Nuclear energy                         8.84453289
 One-electron energy                 -122.49217619
 Two-electron energy                   37.59565399
 Virial quotient                       -1.00245404
 !RHF STATE 1.1 Dipole moment           0.46783598    -0.12615007     0.64947948
 Dipole moment /Debye                   1.18904257    -0.32062050     1.65070405

 Orbital energies:

         1.1          2.1          3.1          4.1          5.1          6.1          7.1
    -20.561481    -1.327153    -0.689001    -0.571103    -0.501696     0.138007     0.200379

 HOMO      5.1    -0.501696 =     -13.6518eV
 LUMO      6.1     0.138007 =       3.7554eV
 LUMO-HOMO         0.639702 =      17.4072eV


 **********************************************************************************************************************************
 DATASETS  * FILE   NREC   LENGTH (MB)   RECORD NAMES
              1      19       19.47       500      610      700      900      950      970     1000      129      960     1100   
                                          VAR    BASINP    GEOM    SYMINP    ZMAT    AOBASIS   BASIS     P2S    ABASIS      S 
                                         1400     1410     1200     1210     1080     1600     1650     1700     2100   
                                           T        V       H0       H01     AOSYM     SMH    MOLCAS    OPER      RHF  

              2       5        0.54       700     1000      520     2100     5600   
                                         GEOM     BASIS   MCVARS     RHF     GINFO   

 PROGRAMS   *        TOTAL       RHF   CCSD(T)       RHF       INT
 CPU TIMES  *         5.80      0.49      0.66      0.24      0.46
 REAL TIME  *         9.38 SEC
 DISK USED  *       105.07 MB      
 SF USED    *         5.27 MB      
 GA USED    *         0.00 MB       (max)       0.00 MB       (current)
 **********************************************************************************************************************************


1PROGRAM * CCSD (Closed-shell coupled cluster)     Authors: C. Hampel, H.-J. Werner, 1991, M. Deegan, P.J. Knowles, 1992


 Convergence thresholds:  THRVAR = 1.00D-12  THRDEN = 1.00D-08

 CCSD(T)     terms to be evaluated (factor= 1.000)


 Number of core orbitals:           1 (   1 )
 Number of closed-shell orbitals:   4 (   4 )
 Number of external orbitals:      53 (  53 )

 Molecular orbitals read from record     2100.1  Type=RHF/CANONICAL (state 1.1)

 Number of N-1 electron functions:               4
 Number of N-2 electron functions:              10
 Number of singly external CSFs:               212
 Number of doubly external CSFs:             22578
 Total number of CSFs:                       22791

 Length of J-op  integral file:               0.00 MB
 Length of K-op  integral file:               0.23 MB
 Length of 3-ext integral record:             0.00 MB

 Memory could be reduced to 1.34 Mwords without degradation in triples

 Integral transformation finished. Total CPU:   0.03 sec, npass=  1  Memory used:   0.67 MW

 Reference energy:                    -76.05198930

 MP2 singlet pair energy:              -0.16813701
 MP2 triplet pair energy:              -0.09613802
 MP2 correlation energy:               -0.26427504
 MP2 total energy:                    -76.31626434

 SCS-MP2 correlation energy:           -0.26158363   (PS=  1.200000  PT=  0.333333)
 SCS-MP2 total energy:                -76.31357293

 ITER.      SQ.NORM     CORR.ENERGY   TOTAL ENERGY   ENERGY CHANGE        DEN1      VAR(S)    VAR(P)  DIIS     TIME  TIME/IT
   1      1.06280499    -0.26938426   -76.32137357    -0.00510923     0.00026354  0.50D-03  0.92D-03  1  1     0.05     0.02
   2      1.06629680    -0.26984520   -76.32183450    -0.00046094    -0.00477062  0.93D-05  0.10D-03  2  2     0.06     0.02
   3      1.06754311    -0.26992577   -76.32191507    -0.00008057    -0.00093760  0.20D-05  0.50D-05  3  3     0.08     0.02
   4      1.06787967    -0.26993917   -76.32192847    -0.00001340    -0.00019124  0.17D-06  0.27D-06  4  4     0.11     0.02
   5      1.06792908    -0.26993629   -76.32192559     0.00000288    -0.00002311  0.58D-07  0.17D-07  5  5     0.15     0.03
   6      1.06793849    -0.26993615   -76.32192545     0.00000014    -0.00000231  0.85D-08  0.19D-08  6  6     0.18     0.03
   7      1.06794110    -0.26993631   -76.32192561    -0.00000016    -0.00000040  0.12D-08  0.27D-09  6  1     0.21     0.03
   8      1.06794201    -0.26993632   -76.32192563    -0.00000001     0.00000056  0.44D-10  0.21D-10  6  2     0.25     0.03
   9      1.06794229    -0.26993630   -76.32192560     0.00000002    -0.00000010  0.21D-11  0.20D-11  6  3     0.27     0.03
  10      1.06794234    -0.26993629   -76.32192560     0.00000001     0.00000003  0.66D-13  0.12D-12  6  4     0.30     0.03
  11      1.06794235    -0.26993629   -76.32192560     0.00000000    -0.00000001  0.24D-14  0.87D-14  6  5     0.36     0.03

 Norm of t1 vector:      0.02819153      S-energy:     0.00000000      T1 diagnostic:  0.00704788
                                                                       D1 diagnostic:  0.01177963

 Total CPU time for triples:      0.09 sec


 RESULTS
 =======

  Reference energy                    -76.051989302543
  CCSD singlet pair energy             -0.184832300980
  CCSD triplet pair energy             -0.085103993935
  CCSD correlation energy              -0.269936293430

  Triples (T) contribution             -0.007967877673
  Total correlation energy             -0.277904171103

  CCSD total energy                   -76.321925595973
  CCSD[T] energy                      -76.330105846725
  CCSD-T energy                       -76.329743714503
 !CCSD(T) total energy                -76.329893473646

 Timing summary (sec):

 STEP                 CPU(USER)    SYS     CPU(TOT)    WALL
 Transformation          0.03      0.01      0.04      0.04
 CCSD iterations         0.33      0.03      0.36      0.36
 Triples                 0.09      0.00      0.09      0.09

 Program statistics:

 Available memory in ccsd:               499998800
 Min. memory needed in ccsd:                111654
 Max. memory used in ccsd:                  126268
 Max. memory used in cckext:                118262 (11 integral passes)



 **********************************************************************************************************************************
 DATASETS  * FILE   NREC   LENGTH (MB)   RECORD NAMES
              1      20       22.37       500      610      700      900      950      970     1000      129      960     1100   
                                          VAR    BASINP    GEOM    SYMINP    ZMAT    AOBASIS   BASIS     P2S    ABASIS      S 
                                         1400     1410     1200     1210     1080     1600     1650     1700     2100     1380   
                                           T        V       H0       H01     AOSYM     SMH    MOLCAS    OPER      RHF     JKOP   

              2       5        0.54       700     1000      520     2100     5600   
                                         GEOM     BASIS   MCVARS     RHF     GINFO   

 PROGRAMS   *        TOTAL   CCSD(T)   CCSD(T)       RHF       INT
 CPU TIMES  *         6.32      0.49      0.66      0.24      0.46
 REAL TIME  *         9.93 SEC
 DISK USED  *       105.07 MB      
 SF USED    *         5.27 MB      
 GA USED    *         0.00 MB       (max)       0.00 MB       (current)
 **********************************************************************************************************************************
 Numerical gradient completed. CPU-time:     4.77 sec, Elapsed:     5.98 sec

 Numerical gradient for CCSD(T)

 Total Energy           -76.33043345  Dipole moments:    0.000000    0.000000    0.000000

 Atom          dE/dx               dE/dy               dE/dz                  d2E/dx2             d2E/dy2             d2E/dz2
   1        -0.017165065         0.004628490        -0.023829628            0.000000000         0.000000000         0.000000000
   2         0.028769034         0.000407381        -0.002097389            0.000000000         0.000000000         0.000000000
   3        -0.011603969        -0.005035871         0.025927017            0.000000000         0.000000000         0.000000000
 Reading points  1 to  1 from record 700.2,  wavefunction type=CCSD(T)         

 Making model hessian for cartesian coordinates
 No hessian update for point  1

 Entering Rational Function Geometry Optimization

 Optimization point  1

 Variable                      Last           Current        Next           Gradient       Hessian
 E(CCSD(T)) / Hartree        0.00000000   -76.33043345   -76.33180279
 GX1 / ANGSTROM              0.00000000    -2.98548858    -2.98446928    -0.03243727    -0.00000000
 GY1 / ANGSTROM              0.00000000     2.68033243     2.68005758     0.00874658    -0.00000000
 GZ1 / ANGSTROM              0.00000000    -0.04315926    -0.04174419    -0.04503147     0.00000000
 GX2 / ANGSTROM              0.00000000    -1.99616224    -2.01917327     0.05436559     0.00000000
 GY2 / ANGSTROM              0.00000000     2.67216083     2.66926452     0.00076984     0.00000000
 GZ2 / ANGSTROM              0.00000000    -0.00108801     0.01382351    -0.00396349     0.00000000
 GX3 / ANGSTROM              0.00000000    -3.27485395    -3.25286222    -0.02192832     0.67427706
 GY3 / ANGSTROM              0.00000000     2.49976241     2.50293356    -0.00951642     4.29375704
 GZ3 / ANGSTROM              0.00000000     0.88649957     0.87017299     0.04899496     5.17695067
 Convergence:                0.00000000  (line search)     0.07376267     0.05048127  (total)

 Geometry written to block  2 of record 700


 Recomputing integrals since geometry changed

1PROGRAM * SEWARD (Integral evaluation for generally contracted gaussian basis sets)     Author: Roland Lindh, 1990

 Geometry written to block  2 of record 700


 Point group  C1  



 ATOMIC COORDINATES

 NR  ATOM    CHARGE       X              Y              Z

   1  O       8.00   -5.639829559    5.064574825   -0.078885085
   2  H       1.00   -3.815684479    5.044178904    0.026122639
   3  H       1.00   -6.147018723    4.729858935    1.644388635

 Bond lengths in Bohr (Angstrom)

 1-2  1.827278821  1-3  1.827278821
     ( 0.966954310)     ( 0.966954310)

 Bond angles

  2-1-3  102.75889363

 NUCLEAR CHARGE:                   10
 NUMBER OF PRIMITIVE AOS:          81
 NUMBER OF SYMMETRY AOS:           74
 NUMBER OF CONTRACTIONS:           58   (  58A   )
 NUMBER OF CORE ORBITALS:           1   (   1A   )
 NUMBER OF VALENCE ORBITALS:        6   (   6A   )


 NUCLEAR REPULSION ENERGY    9.10641639

 Eigenvalues of metric

         1 0.264E-02 0.482E-02 0.597E-02 0.792E-02 0.111E-01 0.407E-01 0.427E-01 0.483E-01


 Contracted 2-electron integrals neglected if value below      1.0D-12
 AO integral compression algorithm  1   Integral accuracy      1.0D-12

     11.010 MB (compressed) written to integral file ( 72.5%)

     Node minimum: 2.621 MB, node maximum: 4.719 MB


 NUMBER OF SORTED TWO-ELECTRON INTEGRALS:     488205.     BUFFER LENGTH:  32768
 NUMBER OF SEGMENTS:   1  SEGMENT LENGTH:     488205      RECORD LENGTH: 524288

 Memory used in sort:       1.05 MW

 SORT1 READ     1852866. AND WROTE      452890. INTEGRALS IN      2 RECORDS. CPU TIME:     0.07 SEC, REAL TIME:     0.07 SEC
 SORT2 READ     1358433. AND WROTE     1464616. INTEGRALS IN     42 RECORDS. CPU TIME:     0.02 SEC, REAL TIME:     0.03 SEC

 Node minimum:      487635.  Node maximum:      488776. integrals

 OPERATOR DM      FOR CENTER  0  COORDINATES:    0.000000    0.000000    0.000000
1PROGRAM * RHF-SCF (CLOSED SHELL)       Authors: W. Meyer, H.-J. Werner


 NUMBER OF ELECTRONS:       5+    5-    SPACE SYMMETRY=1    SPIN SYMMETRY: Singlet 
 CONVERGENCE THRESHOLDS:    1.00E-06 (Density)    1.00E-09 (Energy)
 MAX. NUMBER OF ITERATIONS:       60
 INTERPOLATION TYPE:            DIIS
 INTERPOLATION STEPS:              2 (START)      1 (STEP)
 LEVEL SHIFTS:                  0.00 (CLOSED)  0.00 (OPEN) 

 Number of closed-shell orbitals:    5 (   5 )


 Molecular orbitals read from record     2100.2  Type=RHF/CANONICAL (state 1.1)

 Molecular orbital dump at record        2100.2

 ITERATION    DDIFF          GRAD             ENERGY        2-EL.EN.            DIPOLE MOMENTS         DIIS   ORB.
    1      0.000D+00      0.000D+00       -76.05589082     75.469397    0.46347   -0.12497    0.64342    0    start
    2      0.000D+00      0.127D-02       -76.05616884     75.643577    0.46626   -0.12572    0.64729    1    diag
    3      0.265D-02      0.384D-03       -76.05619154     75.560092    0.46562   -0.12555    0.64640    2    diag
    4      0.495D-03      0.158D-03       -76.05619684     75.590633    0.46756   -0.12608    0.64910    3    diag
    5      0.153D-03      0.280D-04       -76.05619726     75.588441    0.46785   -0.12615    0.64949    4    diag
    6      0.411D-04      0.795D-05       -76.05619731     75.588622    0.46806   -0.12621    0.64979    5    diag
    7      0.153D-04      0.145D-05       -76.05619732     75.588623    0.46808   -0.12621    0.64981    6    diag
    8      0.301D-05      0.182D-06       -76.05619732     75.588620    0.46807   -0.12621    0.64981    7    orth
    9      0.323D-06      0.251D-07       -76.05619732     75.588620    0.46807   -0.12621    0.64981    0    orth

 Final occupancy:   5

 !RHF STATE 1.1 Energy                -76.056197315934
 Nuclear energy                         9.10641639
 One-electron energy                 -122.95692396
 Two-electron energy                   37.79431025
 Virial quotient                       -1.00112306
 !RHF STATE 1.1 Dipole moment           0.46807408    -0.12621427     0.64981002
 Dipole moment /Debye                   1.18964772    -0.32078367     1.65154416

 Orbital energies:

         1.1          2.1          3.1          4.1          5.1          6.1          7.1
    -20.557328    -1.342012    -0.701169    -0.579356    -0.504288     0.140915     0.203506

 HOMO      5.1    -0.504288 =     -13.7224eV
 LUMO      6.1     0.140915 =       3.8345eV
 LUMO-HOMO         0.645203 =      17.5569eV


 **********************************************************************************************************************************
 DATASETS  * FILE   NREC   LENGTH (MB)   RECORD NAMES
              1      18       19.23       500      610      700      900      950      970     1000      129      960     1100   
                                          VAR    BASINP    GEOM    SYMINP    ZMAT    AOBASIS   BASIS     P2S    ABASIS      S 
                                         1400     1410     1200     1210     1080     1600     1650     1700   
                                           T        V       H0       H01     AOSYM     SMH    MOLCAS    OPER   

              2       5        0.54       700     1000      520     2100     5600   
                                         GEOM     BASIS   MCVARS     RHF     GINFO   

 PROGRAMS   *        TOTAL       RHF   CCSD(T)       RHF       INT
 CPU TIMES  *         6.76      0.43      0.66      0.24      0.46
 REAL TIME  *        10.47 SEC
 DISK USED  *       105.17 MB      
 SF USED    *         5.27 MB      
 GA USED    *         0.00 MB       (max)       0.00 MB       (current)
 **********************************************************************************************************************************


1PROGRAM * CCSD (Closed-shell coupled cluster)     Authors: C. Hampel, H.-J. Werner, 1991, M. Deegan, P.J. Knowles, 1992


 Convergence thresholds:  THRVAR = 1.00D-12  THRDEN = 1.00D-08

 CCSD(T)     terms to be evaluated (factor= 1.000)


 Number of core orbitals:           1 (   1 )
 Number of closed-shell orbitals:   4 (   4 )
 Number of external orbitals:      53 (  53 )

 Molecular orbitals read from record     2100.2  Type=RHF/CANONICAL (state 1.1)

 Number of N-1 electron functions:               4
 Number of N-2 electron functions:              10
 Number of singly external CSFs:               212
 Number of doubly external CSFs:             22578
 Total number of CSFs:                       22791

 Length of J-op  integral file:               0.00 MB
 Length of K-op  integral file:               0.23 MB
 Length of 3-ext integral record:             0.00 MB

 Memory could be reduced to 1.34 Mwords without degradation in triples

 Integral transformation finished. Total CPU:   0.05 sec, npass=  1  Memory used:   0.67 MW

 Reference energy:                    -76.05619732

 MP2 singlet pair energy:              -0.16678780
 MP2 triplet pair energy:              -0.09555348
 MP2 correlation energy:               -0.26234128
 MP2 total energy:                    -76.31853860

 SCS-MP2 correlation energy:           -0.25960086   (PS=  1.200000  PT=  0.333333)
 SCS-MP2 total energy:                -76.31579817

 ITER.      SQ.NORM     CORR.ENERGY   TOTAL ENERGY   ENERGY CHANGE        DEN1      VAR(S)    VAR(P)  DIIS     TIME  TIME/IT
   1      1.06112024    -0.26766511   -76.32386243    -0.00532383    -0.00024396  0.46D-03  0.84D-03  1  1     0.09     0.03
   2      1.06433964    -0.26809137   -76.32428869    -0.00042626    -0.00454872  0.80D-05  0.90D-04  2  2     0.14     0.04
   3      1.06541650    -0.26815717   -76.32435448    -0.00006580    -0.00084187  0.16D-05  0.42D-05  3  3     0.17     0.04
   4      1.06569987    -0.26816790   -76.32436522    -0.00001073    -0.00016814  0.11D-06  0.22D-06  4  4     0.20     0.04
   5      1.06573850    -0.26816523   -76.32436254     0.00000268    -0.00001945  0.38D-07  0.12D-07  5  5     0.25     0.04
   6      1.06574510    -0.26816507   -76.32436238     0.00000016    -0.00000184  0.58D-08  0.13D-08  6  6     0.29     0.04
   7      1.06574687    -0.26816520   -76.32436252    -0.00000013    -0.00000032  0.88D-09  0.18D-09  6  1     0.32     0.04
   8      1.06574752    -0.26816521   -76.32436253    -0.00000001     0.00000044  0.32D-10  0.14D-10  6  2     0.36     0.04
   9      1.06574771    -0.26816520   -76.32436251     0.00000002    -0.00000006  0.19D-11  0.14D-11  6  6     0.40     0.04
  10      1.06574777    -0.26816519   -76.32436251     0.00000001     0.00000002  0.28D-13  0.65D-13  6  3     0.44     0.04
  11      1.06574778    -0.26816519   -76.32436251     0.00000000    -0.00000001  0.14D-14  0.28D-14  6  4     0.46     0.04

 Norm of t1 vector:      0.02672052      S-energy:     0.00000000      T1 diagnostic:  0.00668013
                                                                       D1 diagnostic:  0.01103290

 Total CPU time for triples:      0.08 sec


 RESULTS
 =======

  Reference energy                    -76.056197315934
  CCSD singlet pair energy             -0.183105310464
  CCSD triplet pair energy             -0.085059881627
  CCSD correlation energy              -0.268165189844

  Triples (T) contribution             -0.007743264447
  Total correlation energy             -0.275908454291

  CCSD total energy                   -76.324362505778
  CCSD[T] energy                      -76.332304082777
  CCSD-T energy                       -76.331965625404
 !CCSD(T) total energy                -76.332105770225

 Timing summary (sec):

 STEP                 CPU(USER)    SYS     CPU(TOT)    WALL
 Transformation          0.07      0.00      0.07      0.07
 CCSD iterations         0.39      0.03      0.42      0.46
 Triples                 0.08      0.00      0.08      0.08

 Program statistics:

 Available memory in ccsd:               499998927
 Min. memory needed in ccsd:                111654
 Max. memory used in ccsd:                  126268
 Max. memory used in cckext:                118262 (11 integral passes)



 **********************************************************************************************************************************
 DATASETS  * FILE   NREC   LENGTH (MB)   RECORD NAMES
              1      19       22.12       500      610      700      900      950      970     1000      129      960     1100   
                                          VAR    BASINP    GEOM    SYMINP    ZMAT    AOBASIS   BASIS     P2S    ABASIS      S 
                                         1400     1410     1200     1210     1080     1600     1650     1700     1380   
                                           T        V       H0       H01     AOSYM     SMH    MOLCAS    OPER     JKOP   

              2       5        0.54       700     1000      520     2100     5600   
                                         GEOM     BASIS   MCVARS     RHF     GINFO   

 PROGRAMS   *        TOTAL   CCSD(T)   CCSD(T)       RHF       INT
 CPU TIMES  *         7.32      0.56      0.66      0.24      0.46
 REAL TIME  *        11.11 SEC
 DISK USED  *       105.17 MB      
 SF USED    *         5.27 MB      
 GA USED    *         0.00 MB       (max)       0.00 MB       (current)
 **********************************************************************************************************************************

 ITER.   ENERGY(OLD)    ENERGY(NEW)      DE          GRADMAX     GRADNORM    GRADRMS     STEPMAX     STEPLEN     STEPRMS   CPU-time
   1   -76.33043345   -76.33210577    -0.00167232  0.04908783  0.05048127  0.01682709  0.06149566  0.07376267  0.04258690      5.70

 Current geometry (xyz format, in Angstrom)

    3
 CCSD(T)/CC-PVTZ  ENERGY=-76.33210577
 O         -2.9844692760        2.6800575805       -0.0417441892
 H         -2.0191732702        2.6692645241        0.0138235053
 H         -3.2528622232        2.5029335592        0.8701729917

 **********************************************************************************************************************************
 

 Generated   2 symmetrical displacements

 Number of displacements for numerical gradient:      4

 Starting numerical gradient for CCSD(T)
 Starting task   1   Incrementing displacement  1 by  1.   CPU=    0.00 sec, Elapsed=    0.00 sec


 Recomputing integrals since geometry changed

1PROGRAM * SEWARD (Integral evaluation for generally contracted gaussian basis sets)     Author: Roland Lindh, 1990

 Geometry written to block  2 of record 700


 Point group  C1  



 ATOMIC COORDINATES

 NR  ATOM    CHARGE       X              Y              Z

   1  O       8.00   -5.642699794    5.065348772   -0.082869727
   2  H       1.00   -3.818829314    5.043174443    0.031294076
   3  H       1.00   -6.141003652    4.730089449    1.643201840

 Bond lengths in Bohr (Angstrom)

 1-2  1.827574514  1-3  1.827574514
     ( 0.967110784)     ( 0.967110784)

 Bond angles

  2-1-3  102.17405769

 NUCLEAR CHARGE:                   10
 NUMBER OF PRIMITIVE AOS:          81
 NUMBER OF SYMMETRY AOS:           74
 NUMBER OF CONTRACTIONS:           58   (  58A   )
 NUMBER OF CORE ORBITALS:           1   (   1A   )
 NUMBER OF VALENCE ORBITALS:        6   (   6A   )


 NUCLEAR REPULSION ENERGY    9.10638117

 Eigenvalues of metric

         1 0.265E-02 0.482E-02 0.597E-02 0.791E-02 0.111E-01 0.407E-01 0.428E-01 0.483E-01


 Contracted 2-electron integrals neglected if value below      1.0D-12
 AO integral compression algorithm  1   Integral accuracy      1.0D-12

     10.748 MB (compressed) written to integral file ( 74.5%)

     Node minimum: 2.884 MB, node maximum: 3.932 MB


 NUMBER OF SORTED TWO-ELECTRON INTEGRALS:     488205.     BUFFER LENGTH:  32768
 NUMBER OF SEGMENTS:   1  SEGMENT LENGTH:     488205      RECORD LENGTH: 524288

 Memory used in sort:       1.05 MW

 SORT1 READ     1852866. AND WROTE      452891. INTEGRALS IN      2 RECORDS. CPU TIME:     0.30 SEC, REAL TIME:     0.58 SEC
 SORT2 READ     1358438. AND WROTE     1464616. INTEGRALS IN     45 RECORDS. CPU TIME:     0.03 SEC, REAL TIME:     0.06 SEC

 Node minimum:      487635.  Node maximum:      488776. integrals

 OPERATOR DM      FOR CENTER  0  COORDINATES:    0.000000    0.000000    0.000000
1PROGRAM * RHF-SCF (CLOSED SHELL)       Authors: W. Meyer, H.-J. Werner


 NUMBER OF ELECTRONS:       5+    5-    SPACE SYMMETRY=1    SPIN SYMMETRY: Singlet 
 CONVERGENCE THRESHOLDS:    1.00E-07 (Density)    1.00E-09 (Energy)
 MAX. NUMBER OF ITERATIONS:       60
 INTERPOLATION TYPE:            DIIS
 INTERPOLATION STEPS:              2 (START)      1 (STEP)
 LEVEL SHIFTS:                  0.00 (CLOSED)  0.00 (OPEN) 

 Number of closed-shell orbitals:    5 (   5 )


 Molecular orbitals read from record     2100.2  Type=RHF/CANONICAL (state 1.1)

 Molecular orbital dump at record        2100.1

[...]
   9      1.06492988    -0.26743042   -76.32454279     0.00000002    -0.00000007  0.12D-11  0.11D-11  6  3     0.19     0.02
  10      1.06492992    -0.26743041   -76.32454279     0.00000000     0.00000002  0.40D-13  0.54D-13  6  4     0.20     0.02
  11      1.06492993    -0.26743041   -76.32454279     0.00000000    -0.00000001  0.18D-14  0.40D-14  6  5     0.22     0.02

 Norm of t1 vector:      0.02610721      S-energy:     0.00000000      T1 diagnostic:  0.00652680
                                                                       D1 diagnostic:  0.01077299

 Total CPU time for triples:      0.06 sec


 RESULTS
 =======

  Reference energy                    -76.057112378747
  CCSD singlet pair energy             -0.182431049178
  CCSD triplet pair energy             -0.084999362372
  CCSD correlation energy              -0.267430410196

  Triples (T) contribution             -0.007649879042
  Total correlation energy             -0.275080289238

  CCSD total energy                   -76.324542788943
  CCSD[T] energy                      -76.332385056789
  CCSD-T energy                       -76.332056460746
 !CCSD(T) total energy                -76.332192667985

 Timing summary (sec):

 STEP                 CPU(USER)    SYS     CPU(TOT)    WALL
 Transformation          0.04      0.01      0.05      0.05
 CCSD iterations         0.18      0.02      0.20      0.20
 Triples                 0.06      0.00      0.06      0.06

 Program statistics:

 Available memory in ccsd:               499998146
 Min. memory needed in ccsd:                111654
 Max. memory used in ccsd:                  126268
 Max. memory used in cckext:                118262 (11 integral passes)



 **********************************************************************************************************************************
 DATASETS  * FILE   NREC   LENGTH (MB)   RECORD NAMES
              1      20       22.37       500      610      700      900      950      970     1000      129      960     1100   
                                          VAR    BASINP    GEOM    SYMINP    ZMAT    AOBASIS   BASIS     P2S    ABASIS      S 
                                         1400     1410     1200     1210     1080     1600     1650     1700     2100     1380   
                                           T        V       H0       H01     AOSYM     SMH    MOLCAS    OPER      RHF     JKOP   

              2       6        0.55       700     1000      520     2100     5600     5500   
                                         GEOM     BASIS   MCVARS     RHF     GINFO    HINFO   

 PROGRAMS   *        TOTAL   CCSD(T)      OPTG   CCSD(T)       RHF       INT
 CPU TIMES  *        80.54      0.29     26.03      0.66      0.24      0.46
 REAL TIME  *       107.10 SEC
 DISK USED  *       105.23 MB      
 SF USED    *         5.27 MB      
 GA USED    *         0.00 MB       (max)       0.00 MB       (current)
 **********************************************************************************************************************************
   90 tasks completed, CPU=1m 1s Elapsed=1m 7s

 Numerical CCSD(T) hessian completed. CPU-time:    61.71 sec, Elapsed:    67.55 sec

 CCSD(T) hessian saved to record  5300.2

 FREQUENCIES * CALCULATION OF HARMONIC VIBRATIONAL SPECTRA FOR CCSD(T)


 Permanent Dipole Moment [debye]
   1-  3    0.000000    0.000000    0.000000

 Dipole Moment Norm    0.0000000 [debye]

 Dipole Moment Derivatives [debye/ang]
                   1             2             3             4             5             6             7             8
         1     0.0000000     0.0000000     0.0000000     0.0000000     0.0000000     0.0000000     0.0000000     0.0000000
         2     0.0000000     0.0000000     0.0000000     0.0000000     0.0000000     0.0000000     0.0000000     0.0000000
         3     0.0000000     0.0000000     0.0000000     0.0000000     0.0000000     0.0000000     0.0000000     0.0000000
                   9
         1     0.0000000
         2     0.0000000
         3     0.0000000

 Projecting out rotations and translations

   Low Vibration      Wavenumber
        Nr             [1/cm] 
        1                0.00
        2                0.00
        3                0.00
        4                0.00
        5                0.00
        6                0.00

     Vibration        Wavenumber
        Nr             [1/cm] 
        1             1668.80
        2             3840.54
        3             3945.12

 FREQUENCIES * CALCULATION OF NORMAL MODES FOR CCSD(T)


 Atomic Coordinates

  Nr  Atom  Charge       X              Y              Z

   1   O     8.00   -5.632495880    5.062597329   -0.068704009
   2   H     1.00   -3.821787647    5.044839177    0.022723248
   3   H     1.00   -6.148249233    4.731176159    1.637606950

 Frequencies dumped to record   5400.2

 Gradient norm at reference geometry: 0.25559D-04
 
 Molecule is not in standard orientation!
 Symmetry information for normal modes not available!

 Normal Modes

                              1 A         2 A         3 A  
 Wavenumbers [cm-1]         1668.80     3840.54     3945.12
 Intensities [km/mol]          0.00        0.00        0.00
 Intensities [relative]        0.00        0.00        0.00
           GX1             -0.03918    -0.02823    -0.05484
           GY1              0.01056     0.00761    -0.00739
           GZ1             -0.05439    -0.03917     0.03807
           GX2             -0.02516     0.69067     0.67746
           GY2             -0.12916     0.00252    -0.00664
           GZ2              0.66498    -0.01296     0.03421
           GX3              0.64706    -0.24263     0.19300
           GY3             -0.03853    -0.12329     0.12402
           GZ3              0.19836     0.63477    -0.63853


 Normal Modes of low/zero frequencies

                                  1           2           3           4           5
 Wavenumbers [cm-1]            0.00        0.00        0.00        0.00        0.00
 Intensities [km/mol]          0.00        0.00        0.00        0.00        0.00
 Intensities [relative]        0.00        0.00        0.00        0.00        0.00
           GX1             -0.09976    -0.11209     0.04500     0.16839     0.05448
           GY1              0.13436     0.01005     0.00074     0.02189     0.07299
           GZ1              0.08295    -0.03733    -0.00921    -0.01511     0.18544
           GX2             -0.07283    -0.11434     0.04817     0.18124     0.03927
           GY2              0.08620     0.19563     0.95864    -0.08871    -0.02442
           GZ2             -0.45980     0.04321     0.11411    -0.29112     0.46771
           GX3              0.40288    -0.15401     0.10412     0.40824    -0.22934
           GY3             -0.13674     0.82481    -0.11510     0.46691     0.16511
           GZ3              0.18223     0.10825    -0.01384     0.14383     0.11755

                                  6
 Wavenumbers [cm-1]            0.00
 Intensities [km/mol]          0.00
 Intensities [relative]        0.00
           GX1              0.03606
           GY1              0.19575
           GZ1             -0.11655
           GX2              0.02087
           GY2             -0.04718
           GZ2              0.13702
           GX3             -0.24736
           GY3             -0.05029
           GZ3             -0.25000


 Zero point energy:  0.02153884 [H]     4727.23 [1/CM]       56.55 [KJ/MOL]

 Recomputing wavefunction at initial geometry


 Recomputing integrals since geometry changed

1PROGRAM * SEWARD (Integral evaluation for generally contracted gaussian basis sets)     Author: Roland Lindh, 1990

 Geometry written to block  1 of record 700


 Point group  C1  



 ATOMIC COORDINATES

 NR  ATOM    CHARGE       X              Y              Z

   1  O       8.00   -5.632495880    5.062597329   -0.068704009
   2  H       1.00   -3.821787647    5.044839177    0.022723248
   3  H       1.00   -6.148249233    4.731176159    1.637606950

 Bond lengths in Bohr (Angstrom)

 1-2  1.813101928  1-3  1.813101928
     ( 0.959452221)     ( 0.959452221)

 Bond angles

  2-1-3  103.58203889

 NUCLEAR CHARGE:                   10
 NUMBER OF PRIMITIVE AOS:          81
 NUMBER OF SYMMETRY AOS:           74
 NUMBER OF CONTRACTIONS:           58   (  58A   )
 NUMBER OF CORE ORBITALS:           1   (   1A   )
 NUMBER OF VALENCE ORBITALS:        6   (   6A   )


 NUCLEAR REPULSION ENERGY    9.17561577

 Eigenvalues of metric

         1 0.259E-02 0.475E-02 0.582E-02 0.762E-02 0.109E-01 0.403E-01 0.419E-01 0.480E-01


 Contracted 2-electron integrals neglected if value below      1.0D-12
 AO integral compression algorithm  1   Integral accuracy      1.0D-12

     11.010 MB (compressed) written to integral file ( 72.4%)

     Node minimum: 3.408 MB, node maximum: 3.932 MB


 NUMBER OF SORTED TWO-ELECTRON INTEGRALS:     488205.     BUFFER LENGTH:  32768
 NUMBER OF SEGMENTS:   1  SEGMENT LENGTH:     488205      RECORD LENGTH: 524288

 Memory used in sort:       1.05 MW

 SORT1 READ     1852866. AND WROTE      452887. INTEGRALS IN      2 RECORDS. CPU TIME:     0.04 SEC, REAL TIME:     0.04 SEC
 SORT2 READ     1358425. AND WROTE     1464616. INTEGRALS IN     39 RECORDS. CPU TIME:     0.02 SEC, REAL TIME:     0.03 SEC

 Node minimum:      487635.  Node maximum:      488776. integrals

 OPERATOR DM      FOR CENTER  0  COORDINATES:    0.000000    0.000000    0.000000
1PROGRAM * RHF-SCF (CLOSED SHELL)       Authors: W. Meyer, H.-J. Werner


 NUMBER OF ELECTRONS:       5+    5-    SPACE SYMMETRY=1    SPIN SYMMETRY: Singlet 
 CONVERGENCE THRESHOLDS:    1.00E-07 (Density)    1.00E-09 (Energy)
 MAX. NUMBER OF ITERATIONS:       60
 INTERPOLATION TYPE:            DIIS
 INTERPOLATION STEPS:              2 (START)      1 (STEP)
 LEVEL SHIFTS:                  0.00 (CLOSED)  0.00 (OPEN) 

 Number of closed-shell orbitals:    5 (   5 )


 Molecular orbitals read from record     2100.2  Type=RHF/CANONICAL (state 1.1)

 Molecular orbital dump at record        2100.2

 ITERATION    DDIFF          GRAD             ENERGY        2-EL.EN.            DIPOLE MOMENTS         DIIS   ORB.
    1      0.000D+00      0.000D+00       -76.05694425     75.699670    0.46374   -0.12505    0.64380    0    start
    2      0.000D+00      0.117D-07       -76.05694425     75.699668    0.46374   -0.12505    0.64380    0    orth

 Final occupancy:   5

 !RHF STATE 1.1 Energy                -76.056944248738
 Nuclear energy                         9.17561577
 One-electron energy                 -123.08239423
 Two-electron energy                   37.84983420
 Virial quotient                       -1.00076841
 !RHF STATE 1.1 Dipole moment           0.46374367    -0.12504660     0.64379827
 Dipole moment /Debye                   1.17864163    -0.31781593     1.63626481

 Orbital energies:

         1.1          2.1          3.1          4.1          5.1          6.1          7.1
    -20.555590    -1.345227    -0.706790    -0.579150    -0.504606     0.141861     0.204044

 HOMO      5.1    -0.504606 =     -13.7310eV
 LUMO      6.1     0.141861 =       3.8602eV
 LUMO-HOMO         0.646467 =      17.5913eV


 **********************************************************************************************************************************
 DATASETS  * FILE   NREC   LENGTH (MB)   RECORD NAMES
              1      18       19.23       500      610      700      900      950      970     1000      129      960     1100   
                                          VAR    BASINP    GEOM    SYMINP    ZMAT    AOBASIS   BASIS     P2S    ABASIS      S 
                                         1400     1410     1200     1210     1080     1600     1650     1700   
                                           T        V       H0       H01     AOSYM     SMH    MOLCAS    OPER   

              2       8        0.55       700     1000      520     2100     5600     5300     5400     5450   
                                         GEOM     BASIS   MCVARS     RHF     GINFO    HESS     FREQ     NMOD   

 PROGRAMS   *        TOTAL       RHF      OPTG   CCSD(T)       RHF       INT
 CPU TIMES  *        80.78      0.23     26.03      0.66      0.24      0.46
 REAL TIME  *       107.39 SEC
 DISK USED  *       105.23 MB      
 SF USED    *         5.27 MB      
 GA USED    *         0.00 MB       (max)       0.00 MB       (current)
 **********************************************************************************************************************************


1PROGRAM * CCSD (Closed-shell coupled cluster)     Authors: C. Hampel, H.-J. Werner, 1991, M. Deegan, P.J. Knowles, 1992


 Convergence thresholds:  THRVAR = 1.00D-12  THRDEN = 1.00D-08

 CCSD(T)     terms to be evaluated (factor= 1.000)


 Number of core orbitals:           1 (   1 )
 Number of closed-shell orbitals:   4 (   4 )
 Number of external orbitals:      53 (  53 )

 Molecular orbitals read from record     2100.2  Type=RHF/CANONICAL (state 1.1)

 Number of N-1 electron functions:               4
 Number of N-2 electron functions:              10
 Number of singly external CSFs:               212
 Number of doubly external CSFs:             22578
 Total number of CSFs:                       22791

 Length of J-op  integral file:               0.00 MB
 Length of K-op  integral file:               0.23 MB
 Length of 3-ext integral record:             0.00 MB

 Memory could be reduced to 1.34 Mwords without degradation in triples

 Integral transformation finished. Total CPU:   0.03 sec, npass=  1  Memory used:   0.67 MW

 Reference energy:                    -76.05694425

 MP2 singlet pair energy:              -0.16636835
 MP2 triplet pair energy:              -0.09534471
 MP2 correlation energy:               -0.26171306
 MP2 total energy:                    -76.31865731

 SCS-MP2 correlation energy:           -0.25896761   (PS=  1.200000  PT=  0.333333)
 SCS-MP2 total energy:                -76.31591186

 ITER.      SQ.NORM     CORR.ENERGY   TOTAL ENERGY   ENERGY CHANGE        DEN1      VAR(S)    VAR(P)  DIIS     TIME  TIME/IT
   1      1.06063314    -0.26711226   -76.32405650    -0.00539920    -0.00040517  0.45D-03  0.82D-03  1  1     0.05     0.02
   2      1.06377765    -0.26753112   -76.32447537    -0.00041886    -0.00448447  0.76D-05  0.87D-04  2  2     0.07     0.02
   3      1.06481003    -0.26759330   -76.32453755    -0.00006218    -0.00081606  0.15D-05  0.40D-05  3  3     0.08     0.02
   4      1.06507948    -0.26760346   -76.32454771    -0.00001016    -0.00016182  0.10D-06  0.20D-06  4  4     0.10     0.02
   5      1.06511567    -0.26760084   -76.32454509     0.00000262    -0.00001857  0.35D-07  0.11D-07  5  5     0.12     0.02
   6      1.06512168    -0.26760070   -76.32454495     0.00000014    -0.00000172  0.54D-08  0.12D-08  6  6     0.13     0.02
   7      1.06512332    -0.26760082   -76.32454507    -0.00000012    -0.00000031  0.82D-09  0.16D-09  6  1     0.15     0.02
   8      1.06512392    -0.26760084   -76.32454509    -0.00000001     0.00000042  0.29D-10  0.13D-10  6  2     0.17     0.02
   9      1.06512412    -0.26760082   -76.32454507     0.00000002    -0.00000008  0.12D-11  0.11D-11  6  3     0.18     0.02
  10      1.06512416    -0.26760082   -76.32454506     0.00000000     0.00000002  0.41D-13  0.57D-13  6  4     0.20     0.02
  11      1.06512417    -0.26760082   -76.32454506     0.00000000    -0.00000001  0.18D-14  0.42D-14  6  5     0.22     0.02

 Norm of t1 vector:      0.02624513      S-energy:     0.00000000      T1 diagnostic:  0.00656128
                                                                       D1 diagnostic:  0.01083412

 Total CPU time for triples:      0.05 sec


 RESULTS
 =======

  Reference energy                    -76.056944248738
  CCSD singlet pair energy             -0.182589943747
  CCSD triplet pair energy             -0.085010872732
  CCSD correlation energy              -0.267600815749

  Triples (T) contribution             -0.007671453030
  Total correlation energy             -0.275272268779

  CCSD total energy                   -76.324545064487
  CCSD[T] energy                      -76.332410241168
  CCSD-T energy                       -76.332079408205
 !CCSD(T) total energy                -76.332216517517

 Timing summary (sec):

 STEP                 CPU(USER)    SYS     CPU(TOT)    WALL
 Transformation          0.03      0.01      0.04      0.06
 CCSD iterations         0.19      0.03      0.22      0.25
 Triples                 0.05      0.00      0.05      0.06

 Program statistics:

 Available memory in ccsd:               499999836
 Min. memory needed in ccsd:                111654
 Max. memory used in ccsd:                  126268
 Max. memory used in cckext:                118262 (11 integral passes)



 **********************************************************************************************************************************
 DATASETS  * FILE   NREC   LENGTH (MB)   RECORD NAMES
              1      19       22.12       500      610      700      900      950      970     1000      129      960     1100   
                                          VAR    BASINP    GEOM    SYMINP    ZMAT    AOBASIS   BASIS     P2S    ABASIS      S 
                                         1400     1410     1200     1210     1080     1600     1650     1700     1380   
                                           T        V       H0       H01     AOSYM     SMH    MOLCAS    OPER     JKOP   

              2       8        0.55       700     1000      520     2100     5600     5300     5400     5450   
                                         GEOM     BASIS   MCVARS     RHF     GINFO    HESS     FREQ     NMOD   

 PROGRAMS   *        TOTAL   CCSD(T)      OPTG   CCSD(T)       RHF       INT
 CPU TIMES  *        81.08      0.30     26.03      0.66      0.24      0.46
 REAL TIME  *       107.79 SEC
 DISK USED  *       105.23 MB      
 SF USED    *         5.27 MB      
 GA USED    *         0.00 MB       (max)       0.00 MB       (current)
 **********************************************************************************************************************************


 **********************************************************************************************************************************
 DATASETS  * FILE   NREC   LENGTH (MB)   RECORD NAMES
              1      19       22.12       500      610      700      900      950      970     1000      129      960     1100   
                                          VAR    BASINP    GEOM    SYMINP    ZMAT    AOBASIS   BASIS     P2S    ABASIS      S 
                                         1400     1410     1200     1210     1080     1600     1650     1700     1380   
                                           T        V       H0       H01     AOSYM     SMH    MOLCAS    OPER     JKOP   

              2       8        0.55       700     1000      520     2100     5600     5300     5400     5450   
                                         GEOM     BASIS   MCVARS     RHF     GINFO    HESS     FREQ     NMOD   

 PROGRAMS   *        TOTAL      FREQ      OPTG   CCSD(T)       RHF       INT
 CPU TIMES  *        81.08     53.43     26.03      0.66      0.24      0.46
 REAL TIME  *       107.79 SEC
 DISK USED  *       105.23 MB      
 SF USED    *         5.27 MB      
 GA USED    *         0.00 MB       (max)       0.00 MB       (current)
 **********************************************************************************************************************************

 CCSD(T)/cc-pVTZ energy=    -76.332216517517

   OPTG(CCSD(T))        CCSD(T)         RHF-SCF 
    -76.33221652    -76.33043345    -76.05293660
 **********************************************************************************************************************************
 Variable memory released
