
 Primary working directories    : /scratch/kmoore
 Secondary working directories  : /scratch/kmoore
 Wavefunction directory         : /scratch/kmoore/
 Main file repository           : /scratch/kmoore/

 SHA1      : b6b3a4772808bb2d43777f23454e145ddfe12dc3
 NAME      : 2015.1.1
 ARCHNAME  : linux/x86_64
 FC        : /soft/mvapich2/2.2b_psm/intel-15.0/bin/mpif90
 BLASLIB   : -L/soft/intel/15.0.1/composer_xe_2015.0.090/mkl/lib/intel64 -lmkl_intel_ilp64 -lmkl_sequential -lmkl_core
 id        : anlgov

 Nodes     nprocs
 b450         1

 Using customized tuning parameters: mindgm=1; mindgv=20; mindgc=4; mindgr=1; noblas=0; minvec=7
 default implementation of scratch files=df  

 memory,500,m
 gthresh,orbital=1.d-12
 
 angstrom
 Geometry = {
 O 0.0 0.0 -0.143225816552
 H 0.0 1.638036840407 1.136548822547
 H 0.0 -1.638036840407 1.136548822547
 }
 
 basis=STO-3G
 set,spin=0
 set,charge=0
 
 {rhf,maxit=100}

 Variables initialized (889), CPU time= 0.01 sec
 Commands  initialized (702), CPU time= 0.01 sec, 572 directives.
 Default parameters read. Elapsed time= 0.05 sec

 Checking input...
 Passed
1


                                         ***  PROGRAM SYSTEM MOLPRO  ***
                                       Copyright, TTI GmbH Stuttgart, 2015
                                    Version 2015.1 linked Jan  8 2016 07:59:11


 **********************************************************************************************************************************
 LABEL *                                                                                 
  64 bit serial version                                                                  DATE: 15-Dec-18          TIME: 12:22:50  
 **********************************************************************************************************************************

 SHA1:             b6b3a4772808bb2d43777f23454e145ddfe12dc3
 **********************************************************************************************************************************

 THRESHOLDS:

 ZERO    =  1.00D-12  ONEINT  =  1.00D-12  TWOINT  =  1.00D-11  PREFAC  =  1.00D-14  LOCALI  =  1.00D-09  EORDER  =  1.00D-04
 ENERGY  =  0.00D+00  ETEST   =  0.00D+00  EDENS   =  0.00D+00  THRDEDEF=  1.00D-06  GRADIENT=  1.00D-02  STEP    =  1.00D-03
 ORBITAL =  1.00D-12  CIVEC   =  1.00D-05  COEFF   =  1.00D-04  PRINTCI =  5.00D-02  PUNCHCI =  9.90D+01  OPTGRAD =  3.00D-04
 OPTENERG=  1.00D-06  OPTSTEP =  3.00D-04  THRGRAD =  1.00D-10  COMPRESS=  1.00D-11  VARMIN  =  1.00D-07  VARMAX  =  1.00D-03
 THRDOUB =  0.00D+00  THRDIV  =  1.00D-05  THRRED  =  1.00D-07  THRPSP  =  1.00D+00  THRDC   =  1.00D-10  THRCS   =  1.00D-10
 THRNRM  =  1.00D-08  THREQ   =  0.00D+00  THRDE   =  1.00D+00  THRREF  =  1.00D-05  SPARFAC =  1.00D+00  THRDLP  =  1.00D-07
 THRDIA  =  1.00D-10  THRDLS  =  1.00D-07  THRGPS  =  0.00D+00  THRKEX  =  0.00D+00  THRDIS  =  2.00D-01  THRVAR  =  1.00D-10
 THRLOC  =  1.00D-06  THRGAP  =  1.00D-06  THRLOCT = -1.00D+00  THRGAPT = -1.00D+00  THRORB  =  1.00D-06  THRMLTP =  0.00D+00
 THRCPQCI=  1.00D-10  KEXTA   =  0.00D+00  THRCOARS=  0.00D+00  SYMTOL  =  1.00D-06  GRADTOL =  1.00D-06  THROVL  =  1.00D-08
 THRORTH =  1.00D-08  GRID    =  1.00D-06  GRIDMAX =  1.00D-03  DTMAX   =  0.00D+00  THROCCDE=  1.00D-01  THROCCDE=  1.00D-01


 ZUNIT=ANG
 

Geometry recognized as XYZ


 Variable memory set to  500000000 words,  buffer space   230000 words

 SETTING BASIS          =    STO-3G
 SETTING SPIN           =     0.00000000D+00                                  
 SETTING CHARGE         =     0.00000000D+00                                  


 Recomputing integrals since basis changed


 Using spherical harmonics

 Library entry O      S STO-3G               selected for orbital group  1
 Library entry O      P STO-3G               selected for orbital group  1
 Library entry H      S STO-3G               selected for orbital group  2

1PROGRAM * SEWARD (Integral evaluation for generally contracted gaussian basis sets)     Author: Roland Lindh, 1990

 Geometry written to block  1 of record 700


 Point group  C2v 



 ATOMIC COORDINATES

 NR  ATOM    CHARGE       X              Y              Z

   1  O       8.00    0.000000000    0.000000000   -0.270657567
   2  H       1.00    0.000000000    3.095441010    2.147766002
   3  H       1.00    0.000000000   -3.095441010    2.147766002

 NUCLEAR CHARGE:                   10
 NUMBER OF PRIMITIVE AOS:          21
 NUMBER OF SYMMETRY AOS:           21
 NUMBER OF CONTRACTIONS:            7   (   4A1  +   1B1  +   2B2  +   0A2  )
 NUMBER OF CORE ORBITALS:           1   (   1A1  +   0B1  +   0B2  +   0A2  )
 NUMBER OF VALENCE ORBITALS:        6   (   3A1  +   1B1  +   2B2  +   0A2  )


 NUCLEAR REPULSION ENERGY    4.23467028

 Eigenvalues of metric

         1 0.748E+00 0.943E+00 0.106E+01 0.126E+01
         2 0.100E+01
         3 0.914E+00 0.108E+01


 Contracted 2-electron integrals neglected if value below      1.0D-11
 AO integral compression algorithm  1   Integral accuracy      1.0D-11

     0.262 MB (compressed) written to integral file (100.0%)


 NUMBER OF SORTED TWO-ELECTRON INTEGRALS:        191.     BUFFER LENGTH:  32768
 NUMBER OF SEGMENTS:   1  SEGMENT LENGTH:        191      RECORD LENGTH: 524288

 Memory used in sort:       0.56 MW

 SORT1 READ         219. AND WROTE         171. INTEGRALS IN      1 RECORDS. CPU TIME:     0.00 SEC, REAL TIME:     0.00 SEC
 SORT2 READ         171. AND WROTE         191. INTEGRALS IN      1 RECORDS. CPU TIME:     0.00 SEC, REAL TIME:     0.01 SEC

 FILE SIZES:   FILE 1:    19.3 MBYTE,  FILE 4:     4.2 MBYTE,   TOTAL:     23.6 MBYTE

 OPERATOR DM      FOR CENTER  0  COORDINATES:    0.000000    0.000000    0.000000


 **********************************************************************************************************************************
 DATASETS  * FILE   NREC   LENGTH (MB)   RECORD NAMES
              1      19       19.09       500      610      700      900      950      970     1000      129      960     1100   
                                          VAR    BASINP    GEOM    SYMINP    ZMAT    AOBASIS   BASIS     P2S    ABASIS      S 
                                         1400     1410     1200     1210     1080     1600     1650     1300     1700   
                                           T        V       H0       H01     AOSYM     SMH    MOLCAS    ERIS     OPER   

 PROGRAMS   *        TOTAL       INT
 CPU TIMES  *         0.25      0.15
 REAL TIME  *         0.52 SEC
 DISK USED  *        23.87 MB      
 **********************************************************************************************************************************

1PROGRAM * RHF-SCF (CLOSED SHELL)       Authors: W. Meyer, H.-J. Werner


 NUMBER OF ELECTRONS:       5+    5-
 CONVERGENCE THRESHOLDS:    1.00E-12 (Density)    1.00E-07 (Energy)
 MAX. NUMBER OF ITERATIONS:      100
 INTERPOLATION TYPE:            DIIS
 INTERPOLATION STEPS:              2 (START)      1 (STEP)
 LEVEL SHIFTS:                  0.00 (CLOSED)  0.00 (OPEN) 



 Orbital guess generated from atomic densities. Full valence occupancy:    4   1   2   0

 Molecular orbital dump at record        2100.2

 Initial occupancy:   3   1   1

 ITERATION    DDIFF          GRAD             ENERGY        2-EL.EN.            DIPOLE MOMENTS         DIIS   ORB.
    1      0.000D+00      0.000D+00       -73.48390847     84.347814    0.00000    0.00000    4.32740    0    start
    2      0.000D+00      0.184D+00       -73.31369737     53.312461    0.00000    0.00000   -4.60209    1    diag
    3      0.980D+00      0.161D+00       -74.24861205     73.357981    0.00000    0.00000    1.71445    2    diag
    4      0.720D+00      0.120D+00       -74.00217045     78.092003    0.00000    0.00000    2.90059    3    diag
    5      0.142D+00      0.187D+00       -74.34914439     65.712758    0.00000    0.00000   -0.32676    4    diag
    6      0.371D+00      0.434D-01       -74.36224981     68.027750    0.00000    0.00000    0.32649    5    diag
    7      0.731D-01      0.950D-02       -74.36242564     67.972474    0.00000    0.00000    0.31116    6    diag
    8      0.265D-02      0.825D-02       -74.36271017     67.451903    0.00000    0.00000    0.16250    7    diag
    9      0.658D-01      0.311D-02       -74.36274837     67.605208    0.00000    0.00000    0.20671    8    diag
   10      0.206D-01      0.229D-03       -74.36274858     67.601006    0.00000    0.00000    0.20553    9    orth
   11      0.276D-03      0.135D-03       -74.36274814     67.608155    0.00000    0.00000    0.20753    9    diag
   12      0.443D-03      0.295D-03       -74.36274869     67.594866    0.00000    0.00000    0.20381    9    diag
   13      0.104D-02      0.318D-06       -74.36274869     67.594866    0.00000    0.00000    0.20381    9    diag
   14      0.365D-05      0.256D-06       -74.36274869     67.594878    0.00000    0.00000    0.20381    9    diag
   15      0.437D-06      0.265D-07       -74.36274869     67.594877    0.00000    0.00000    0.20381    9    diag
   16      0.332D-07      0.129D-09       -74.36274869     67.594877    0.00000    0.00000    0.20381    9    diag
   17      0.430D-08      0.322D-10       -74.36274869     67.594877    0.00000    0.00000    0.20381    9    diag
   18      0.388D-09      0.496D-11       -74.36274869     67.594877    0.00000    0.00000    0.20381    9    diag
   19      0.296D-10      0.114D-13       -74.36274869     67.594877    0.00000    0.00000    0.20381    7    fixocc
   20      0.237D-12      0.186D-14       -74.36274869     67.594877    0.00000    0.00000    0.20381    0    orth

 Final occupancy:   3   1   1

 !RHF STATE 1.1 Energy                -74.362748685197
 Nuclear energy                         4.23467028
 One-electron energy                 -112.39485739
 Two-electron energy                   33.79743842
 Virial quotient                       -0.99796203
 !RHF STATE 1.1 Dipole moment           0.00000000     0.00000000     0.20380899
 Dipole moment /Debye                   0.00000000     0.00000000     0.51799686

 Orbital energies:

         1.1          2.1          3.1          4.1
    -20.312133    -1.127257    -0.264844     0.098325

         1.2
     -0.410366

         1.3          2.3
     -0.285390     0.110003

 HOMO      3.1    -0.264844 =      -7.2068eV
 LUMO      4.1     0.098325 =       2.6756eV
 LUMO-HOMO         0.363170 =       9.8824eV


 **********************************************************************************************************************************
 DATASETS  * FILE   NREC   LENGTH (MB)   RECORD NAMES
              1      19       19.09       500      610      700      900      950      970     1000      129      960     1100   
                                          VAR    BASINP    GEOM    SYMINP    ZMAT    AOBASIS   BASIS     P2S    ABASIS      S 
                                         1400     1410     1200     1210     1080     1600     1650     1300     1700   
                                           T        V       H0       H01     AOSYM     SMH    MOLCAS    ERIS     OPER   

              2       4        0.40       700     1000      520     2100   
                                         GEOM     BASIS   MCVARS     RHF  

 PROGRAMS   *        TOTAL       RHF       INT
 CPU TIMES  *         0.28      0.02      0.15
 REAL TIME  *         0.56 SEC
 DISK USED  *        23.87 MB      
 **********************************************************************************************************************************

 RHF/STO-3G energy=    -74.362748685197

        RHF-SCF 
    -74.36274869
 **********************************************************************************************************************************
 Variable memory released
