
 Primary working directories    : /scratch/kmoore
 Secondary working directories  : /scratch/kmoore
 Wavefunction directory         : /scratch/kmoore/
 Main file repository           : /scratch/kmoore/

 SHA1      : b6b3a4772808bb2d43777f23454e145ddfe12dc3
 NAME      : 2015.1.1
 ARCHNAME  : linux/x86_64
 FC        : /soft/mvapich2/2.2b_psm/intel-15.0/bin/mpif90
 BLASLIB   : -L/soft/intel/15.0.1/composer_xe_2015.0.090/mkl/lib/intel64 -lmkl_intel_ilp64 -lmkl_sequential -lmkl_core
 id        : anlgov

 Nodes     nprocs
 b443         3
 Number of processes for MPI-2 version of Molpro:   nprocs(total)=    4   nprocs(compute)=    3   nprocs(helper)=    1

 Using customized tuning parameters: mindgm=1; mindgv=20; mindgc=4; mindgr=1; noblas=0; minvec=7
 default implementation of scratch files=sf  

 memory,850,m
 gthresh,energy=1.0d-10,orbital=1.0d-10,oneint=1.d-12,twoint=1.d-14
 gexpec,dm
 
 angstrom
 Geometry = {
 C       -3.6314644292      2.7811256326      0.0000000000
 O       -3.4178205165      3.9817196947      0.0000000000
 H       -2.8869561276      2.0979156227     -0.3935604753
 H       -4.5659583945      2.3966915581      0.3935604753
 }
 
 basis=cc-pVDZ
 {rhf,maxit=300
  expec,dm
  polarizability,dm}
 {mp2
  core,0
  expec,dm
  polari,dm}
 {ccsd
  expec,method=xccsd,dm}
 {qcisd
  expec,dm}
 {qcisd(t)
  expec,dm}
 
 
 

 Variables initialized (889), CPU time= 0.00 sec
 Commands  initialized (702), CPU time= 0.01 sec, 572 directives.
 Default parameters read. Elapsed time= 0.06 sec

 Checking input...
 Passed
1


                                         ***  PROGRAM SYSTEM MOLPRO  ***
                                       Copyright, TTI GmbH Stuttgart, 2015
                                    Version 2015.1 linked Jan  8 2016 07:59:11


 **********************************************************************************************************************************
 LABEL *                                                                                 
  64 bit mpp version                                                                     DATE: 16-Jan-19          TIME: 14:28:51  
 **********************************************************************************************************************************

 SHA1:             b6b3a4772808bb2d43777f23454e145ddfe12dc3
 **********************************************************************************************************************************

 THRESHOLDS:

 ZERO    =  1.00D-12  ONEINT  =  1.00D-12  TWOINT  =  1.00D-14  PREFAC  =  1.00D-14  LOCALI  =  1.00D-09  EORDER  =  1.00D-04
 ENERGY  =  1.00D-10  ETEST   =  0.00D+00  EDENS   =  0.00D+00  THRDEDEF=  1.00D-06  GRADIENT=  1.00D-02  STEP    =  1.00D-03
 ORBITAL =  1.00D-10  CIVEC   =  1.00D-05  COEFF   =  1.00D-04  PRINTCI =  5.00D-02  PUNCHCI =  9.90D+01  OPTGRAD =  3.00D-04
 OPTENERG=  1.00D-06  OPTSTEP =  3.00D-04  THRGRAD =  1.00D-10  COMPRESS=  1.00D-11  VARMIN  =  1.00D-07  VARMAX  =  1.00D-03
 THRDOUB =  0.00D+00  THRDIV  =  1.00D-05  THRRED  =  1.00D-07  THRPSP  =  1.00D+00  THRDC   =  1.00D-10  THRCS   =  1.00D-10
 THRNRM  =  1.00D-08  THREQ   =  0.00D+00  THRDE   =  1.00D+00  THRREF  =  1.00D-05  SPARFAC =  1.00D+00  THRDLP  =  1.00D-07
 THRDIA  =  1.00D-10  THRDLS  =  1.00D-07  THRGPS  =  0.00D+00  THRKEX  =  0.00D+00  THRDIS  =  2.00D-01  THRVAR  =  1.00D-10
 THRLOC  =  1.00D-06  THRGAP  =  1.00D-06  THRLOCT = -1.00D+00  THRGAPT = -1.00D+00  THRORB  =  1.00D-06  THRMLTP =  0.00D+00
 THRCPQCI=  1.00D-10  KEXTA   =  0.00D+00  THRCOARS=  0.00D+00  SYMTOL  =  1.00D-06  GRADTOL =  1.00D-06  THROVL  =  1.00D-08
 THRORTH =  1.00D-08  GRID    =  1.00D-06  GRIDMAX =  1.00D-03  DTMAX   =  0.00D+00  THROCCDE=  1.00D-01  THROCCDE=  1.00D-01


 ZUNIT=ANG
 

Geometry recognized as XYZ


 Variable memory set to  850000000 words,  buffer space   230000 words

 SETTING BASIS          =    CC-PVDZ


 Recomputing integrals since basis changed


 Using spherical harmonics

 Library entry C      S cc-pVDZ              selected for orbital group  1
 Library entry C      P cc-pVDZ              selected for orbital group  1
 Library entry C      D cc-pVDZ              selected for orbital group  1
 Library entry O      S cc-pVDZ              selected for orbital group  2
 Library entry O      P cc-pVDZ              selected for orbital group  2
 Library entry O      D cc-pVDZ              selected for orbital group  2
 Library entry H      S cc-pVDZ              selected for orbital group  3
 Library entry H      P cc-pVDZ              selected for orbital group  3

1PROGRAM * SEWARD (Integral evaluation for generally contracted gaussian basis sets)     Author: Roland Lindh, 1990

 Geometry written to block  1 of record 700


 Point group  C1  



 ATOMIC COORDINATES

 NR  ATOM    CHARGE       X              Y              Z

   1  C       6.00   -6.862473202    5.255565764    0.000000000
   2  O       8.00   -6.458744719    7.524359728    0.000000000
   3  H       1.00   -5.455556415    3.964485959   -0.743721512
   4  H       1.00   -8.628410862    4.529090650    0.743721512

 Bond lengths in Bohr (Angstrom)

 1-2  2.304435449  1-3  2.049249520  1-4  2.049249520
     ( 1.219454724)     ( 1.084416145)     ( 1.084416145)

 Bond angles

  2-1-3  120.00000095   2-1-4  120.00000093   3-1-4  119.99999812

 NUCLEAR CHARGE:                   16
 NUMBER OF PRIMITIVE AOS:          68
 NUMBER OF SYMMETRY AOS:           66
 NUMBER OF CONTRACTIONS:           38   (  38A   )
 NUMBER OF CORE ORBITALS:           2   (   2A   )
 NUMBER OF VALENCE ORBITALS:       10   (  10A   )


 NUCLEAR REPULSION ENERGY   31.20808812


 Eigenvalues of metric

         1 0.126E-01 0.176E-01 0.328E-01 0.404E-01 0.426E-01 0.788E-01 0.126E+00 0.128E+00


 Contracted 2-electron integrals neglected if value below      1.0D-14
 AO integral compression algorithm  1   Integral accuracy      1.0D-14

     2.884 MB (compressed) written to integral file ( 93.5%)

     Node minimum: 0.786 MB, node maximum: 1.049 MB


 NUMBER OF SORTED TWO-ELECTRON INTEGRALS:      91884.     BUFFER LENGTH:  32768
 NUMBER OF SEGMENTS:   1  SEGMENT LENGTH:      91884      RECORD LENGTH: 524288

 Memory used in sort:       0.65 MW

 SORT1 READ      351842. AND WROTE       76654. INTEGRALS IN      1 RECORDS. CPU TIME:     0.01 SEC, REAL TIME:     0.01 SEC
 SORT2 READ      230027. AND WROTE      274911. INTEGRALS IN     12 RECORDS. CPU TIME:     0.00 SEC, REAL TIME:     0.00 SEC

 Node minimum:       91390.  Node maximum:       91884. integrals

 OPERATOR DM      FOR CENTER  0  COORDINATES:    0.000000    0.000000    0.000000


 **********************************************************************************************************************************
 DATASETS  * FILE   NREC   LENGTH (MB)   RECORD NAMES
              1      18       19.17       500      610      700      900      950      970     1000      129      960     1100   
                                          VAR    BASINP    GEOM    SYMINP    ZMAT    AOBASIS   BASIS     P2S    ABASIS      S 
                                         1400     1410     1200     1210     1080     1600     1650     1700   
                                           T        V       H0       H01     AOSYM     SMH    MOLCAS    OPER   

 PROGRAMS   *        TOTAL       INT
 CPU TIMES  *         0.30      0.20
 REAL TIME  *         0.70 SEC
 DISK USED  *        14.53 MB      
 GA USED    *         0.00 MB       (max)       0.00 MB       (current)
 **********************************************************************************************************************************

1PROGRAM * RHF-SCF (CLOSED SHELL)       Authors: W. Meyer, H.-J. Werner


 NUMBER OF ELECTRONS:       8+    8-    SPACE SYMMETRY=1    SPIN SYMMETRY: Singlet 
 CONVERGENCE THRESHOLDS:    1.00E-10 (Density)    1.00E-11 (Energy)
 MAX. NUMBER OF ITERATIONS:      300
 INTERPOLATION TYPE:            DIIS
 INTERPOLATION STEPS:              2 (START)      1 (STEP)
 LEVEL SHIFTS:                  0.00 (CLOSED)  0.00 (OPEN) 



 Orbital guess generated from atomic densities. Full valence occupancy:   12

 Molecular orbital dump at record        2100.2

 Initial occupancy:   8

 ITERATION    DDIFF          GRAD             ENERGY        2-EL.EN.            DIPOLE MOMENTS         DIIS   ORB.
    1      0.000D+00      0.000D+00      -113.82107564    145.111007   -0.29735   -1.67101   -0.00000    0    start
    2      0.000D+00      0.156D-01      -113.84576961    143.177140   -0.12193   -0.68519   -0.00000    1    diag
    3      0.354D-01      0.126D-01      -113.87374157    144.399317   -0.19639   -1.10363   -0.00000    2    diag
    4      0.153D-01      0.101D-02      -113.87419590    144.237883   -0.19225   -1.08036   -0.00000    3    diag
    5      0.212D-02      0.370D-03      -113.87426312    144.283865   -0.19162   -1.07684   -0.00000    4    diag
    6      0.746D-03      0.155D-03      -113.87428165    144.274298   -0.19087   -1.07262   -0.00000    5    diag
    7      0.481D-03      0.535D-04      -113.87428317    144.275811   -0.19063   -1.07128   -0.00000    6    diag
    8      0.171D-03      0.860D-05      -113.87428321    144.275723   -0.19060   -1.07107   -0.00000    7    diag
    9      0.288D-04      0.116D-05      -113.87428321    144.275704   -0.19059   -1.07106   -0.00000    8    diag
   10      0.344D-05      0.198D-06      -113.87428321    144.275701   -0.19059   -1.07106   -0.00000    9    orth
   11      0.607D-06      0.251D-07      -113.87428321    144.275702   -0.19059   -1.07106   -0.00000    9    diag
   12      0.756D-07      0.274D-08      -113.87428321    144.275702   -0.19059   -1.07106   -0.00000    9    diag
   13      0.811D-08      0.293D-09      -113.87428321    144.275702   -0.19059   -1.07106   -0.00000    9    diag
   14      0.105D-08      0.394D-10      -113.87428321    144.275702   -0.19059   -1.07106   -0.00000    9    diag
   15      0.142D-09      0.640D-11      -113.87428321    144.275702   -0.19059   -1.07106   -0.00000    9    diag
   16      0.211D-10      0.161D-11      -113.87428321    144.275702   -0.19059   -1.07106   -0.00000    0    orth

 Final occupancy:   8

 !RHF STATE 1.1 Energy               -113.874283208856
 Nuclear energy                        31.20808812
 One-electron energy                 -217.22022212
 Two-electron energy                   72.13785079
 Virial quotient                       -1.00133129
 !RHF STATE 1.1 Dipole moment          -0.19059430    -1.07106439    -0.00000000
 Dipole moment /Debye                  -0.48441067    -2.72219583    -0.00000000

 Starting polarizability calculation

 CPHF needed  13 iterations for  3 perturbations.  Total CPU time:    0.03 sec


 SCF dipole polarizabilities

             DMX             DMY             DMZ             
  DMX       11.648643        1.132688       -1.910100
  DMY        1.132689       17.812341        0.339899
  DMZ       -1.910102        0.339900        8.139099

 Average    12.533361

 Orbital energies:

         1.1          2.1          3.1          4.1          5.1          6.1          7.1          8.1          9.1         10.1
    -20.573535   -11.341970    -1.393071    -0.870575    -0.694467    -0.638921    -0.521038    -0.438682     0.132736     0.191803

 HOMO      8.1    -0.438682 =     -11.9372eV
 LUMO      9.1     0.132736 =       3.6119eV
 LUMO-HOMO         0.571418 =      15.5491eV


 **********************************************************************************************************************************
 DATASETS  * FILE   NREC   LENGTH (MB)   RECORD NAMES
              1      18       19.17       500      610      700      900      950      970     1000      129      960     1100   
                                          VAR    BASINP    GEOM    SYMINP    ZMAT    AOBASIS   BASIS     P2S    ABASIS      S 
                                         1400     1410     1200     1210     1080     1600     1650     1700   
                                           T        V       H0       H01     AOSYM     SMH    MOLCAS    OPER   

              2       4        0.45       700     1000      520     2100   
                                         GEOM     BASIS   MCVARS     RHF  

 PROGRAMS   *        TOTAL       RHF       INT
 CPU TIMES  *         0.35      0.05      0.20
 REAL TIME  *         0.76 SEC
 DISK USED  *        74.04 MB      
 SF USED    *         0.01 MB      
 GA USED    *         0.00 MB       (max)       0.00 MB       (current)
 **********************************************************************************************************************************


1PROGRAM * MP2 (Closed-shell)     Authors: C. Hampel, H.-J. Werner, 1991, M. Deegan, P.J. Knowles, 1992


 Convergence thresholds:  THRVAR = 1.00D-08  THRDEN = 1.00D-10

 Number of closed-shell orbitals:   8 (   8 )
 Number of external orbitals:      30 (  30 )

 Molecular orbitals read from record     2100.2  Type=RHF/CANONICAL (state 1.1)

 Number of N-1 electron functions:               8
 Number of N-2 electron functions:              36
 Number of singly external CSFs:               240
 Number of doubly external CSFs:             28920
 Total number of CSFs:                       29161

 Length of J-op  integral file:               0.00 MB
 Length of K-op  integral file:               0.10 MB
 Length of 3-ext integral record:             0.00 MB

 Integral transformation finished. Total CPU:   0.01 sec, npass=  1  Memory used:   0.43 MW

 Memory needed for MP2:                      0.01 MW

 SCS-MP2 correlation energy:           -0.316520059765   (PS=  1.200000  PT=  0.333333)
 SCS-MP2 total energy:               -114.190803268621


  Reference energy                   -113.874283208856

  Correlated core orbitals:             1.1       2.1
  Orbital energies:                   -20.5735  -11.3420
 
  MP2 core-core energy                 -0.001103759462
  MP2 core-valence energy              -0.003537263313
  MP2 valence correlation energy       -0.317167826077
 
  MP2 singlet pair energy              -0.201259804675
  MP2 triplet pair energy              -0.120549044177
  MP2 correlation energy               -0.321808848852

 !MP2 total energy                   -114.196092057709

 KEXT needed  1 integral passes. Memory used:   0.15 MW  CPU time:      0.00 sec

 MP2 density written to record 4610.4

 Starting Coupled-perturbed Hartree-Fock, convergence threshold= 1.0D-06

 ITER  FOCK  DIIS      VAR         VARC       CPU
   1     0     1    0.15D+00    0.00D+00     0.00
   2     1     1    0.46D-01    0.00D+00     0.00
   3     1     2    0.25D-01    0.00D+00     0.00
   4     1     3    0.48D-02    0.00D+00     0.00
   5     1     4    0.19D-02    0.00D+00     0.00
   6     1     5    0.74D-03    0.00D+00     0.00
   7     1     6    0.18D-03    0.00D+00     0.00
   8     1     6    0.45D-04    0.00D+00     0.00
   9     1     6    0.56D-05    0.00D+00     0.00
  10     1     6    0.16D-05    0.00D+00     0.00
  11     1     6    0.71D-06    0.00D+00     0.00

 CPHF convergence reached in 10 macroiterations and    0 microiterations.   Accuracy: 7.0622D-07

 CPHF solution written to record  4561.4

 Dipole moments (unrelaxed):           -0.18160228    -1.02053282    -0.00000000
 Orbital relaxation contribution:       0.03437958     0.19319962     0.00000000
 !!MP2 STATE 1.1 Dipole moment         -0.14722270    -0.82733320    -0.00000000
 Dipole moment /Debye                  -0.37417827    -2.10273350    -0.00000000
 
 CPU-time for density and lagrangian:                  0.01 sec
 CPU-time for coupled-perturbed hartree-fock:          0.00 sec


 PROGRAM * POLARIZABILITY     Authors: K. Pflueger and H.-J. Werner, 2003

                              Local implementation by K. Pflueger, 2007

 Starting CPHF iterations, Threshold=  0.10D-05
 CPHF iterations for  3 perturbations converged in 13 iterations

 CPHF solution written to record  4570.4


 Calculating first order MP2 response density


 Computing the perturbed MP2 amplitudes

 Starting CPHF iterations, Threshold=  0.10D-05
 CPHF iterations for  3 perturbations converged in 13 iterations


 SCF polarizabilities

             DMX             DMY             DMZ             
  DMX       11.648643        1.132689       -1.910102
  DMY        1.132688       17.812341        0.339900
  DMZ       -1.910100        0.339899        8.139099

 Average    12.533361


 MP2 polarizabilities

             DMX             DMY             DMZ             
  DMX       12.339620        0.917864       -2.239157
  DMY        0.917864       17.334321        0.398455
  DMZ       -2.239156        0.398454        8.298434

 Average    12.657458


 Total CPU-time for polarizabilities:                            0.11 sec
 CPU-time for CPHF iterations:                                   0.03 sec
 CPU-time for perturbed MP2 amplitudes and density:              0.01 sec
 CPU-time for left sides of first order Z-CPHF equations:        0.04 sec
 CPU-time for Z-CPHF iterations:                                 0.03 sec


 **********************************************************************************************************************************
 DATASETS  * FILE   NREC   LENGTH (MB)   RECORD NAMES
              1      19       20.73       500      610      700      900      950      970     1000      129      960     1100   
                                          VAR    BASINP    GEOM    SYMINP    ZMAT    AOBASIS   BASIS     P2S    ABASIS      S 
                                         1400     1410     1200     1210     1080     1600     1650     1700     1380   
                                           T        V       H0       H01     AOSYM     SMH    MOLCAS    OPER     JKOP   

              2       4        0.45       700     1000      520     2100   
                                         GEOM     BASIS   MCVARS     RHF  

 PROGRAMS   *        TOTAL       MP2       RHF       INT
 CPU TIMES  *         0.51      0.16      0.05      0.20
 REAL TIME  *         0.96 SEC
 DISK USED  *        78.40 MB      
 SF USED    *         6.35 MB      
 GA USED    *         0.00 MB       (max)       0.00 MB       (current)
 **********************************************************************************************************************************


1PROGRAM * CCSD (Closed-shell coupled cluster)     Authors: C. Hampel, H.-J. Werner, 1991, M. Deegan, P.J. Knowles, 1992


 Convergence thresholds:  THRVAR = 1.00D-14  THRDEN = 1.00D-10

 Number of closed-shell orbitals:   8 (   8 )
 Number of external orbitals:      30 (  30 )

 Molecular orbitals read from record     2100.2  Type=RHF/CANONICAL (state 1.1)

 Number of N-1 electron functions:               8
 Number of N-2 electron functions:              36
 Number of singly external CSFs:               240
 Number of doubly external CSFs:             28920
 Total number of CSFs:                       29161

 Length of J-op  integral file:               0.00 MB
 Length of K-op  integral file:               0.10 MB
 Length of 3-ext integral record:             0.00 MB

 Coulomb and exchange operators available. No transformation done.

 Reference energy:                   -113.87428321

 MP2 singlet pair energy:              -0.20125980
 MP2 triplet pair energy:              -0.12054904
 MP2 correlation energy:               -0.32180885
 MP2 total energy:                   -114.19609206

 SCS-MP2 correlation energy:           -0.31652006   (PS=  1.200000  PT=  0.333333)
 SCS-MP2 total energy:               -114.19080327

 ITER.      SQ.NORM     CORR.ENERGY   TOTAL ENERGY   ENERGY CHANGE        DEN1      VAR(S)    VAR(P)  DIIS     TIME  TIME/IT
   1      1.10345841    -0.33531053  -114.20959374    -0.01350168    -0.00228239  0.29D-02  0.22D-02  1  1     0.02     0.02
   2      1.11395882    -0.33668060  -114.21096381    -0.00137006    -0.00969060  0.58D-04  0.43D-03  2  2     0.03     0.02
   3      1.11932752    -0.33709447  -114.21137768    -0.00041388    -0.00237241  0.60D-04  0.31D-04  3  3     0.04     0.02
   4      1.12152430    -0.33700932  -114.21129253     0.00008515    -0.00068659  0.36D-05  0.40D-05  4  4     0.06     0.02
   5      1.12227213    -0.33700645  -114.21128965     0.00000288    -0.00015065  0.39D-06  0.31D-06  5  5     0.07     0.02
   6      1.12239100    -0.33699900  -114.21128221     0.00000745    -0.00000623  0.49D-07  0.21D-07  6  6     0.09     0.02
   7      1.12241082    -0.33699725  -114.21128046     0.00000175    -0.00000046  0.56D-08  0.35D-08  6  2     0.10     0.02
   8      1.12241295    -0.33699762  -114.21128083    -0.00000038     0.00000074  0.12D-08  0.35D-09  6  1     0.12     0.02
   9      1.12241425    -0.33699714  -114.21128035     0.00000048     0.00000020  0.14D-09  0.39D-10  6  4     0.14     0.02
  10      1.12241445    -0.33699724  -114.21128045    -0.00000010    -0.00000008  0.82D-11  0.69D-11  6  3     0.15     0.02
  11      1.12241435    -0.33699722  -114.21128043     0.00000002    -0.00000004  0.37D-11  0.58D-12  6  5     0.17     0.02
  12      1.12241409    -0.33699725  -114.21128046    -0.00000003     0.00000006  0.15D-12  0.16D-12  6  2     0.18     0.02
  13      1.12241398    -0.33699726  -114.21128047    -0.00000001     0.00000003  0.76D-14  0.81D-14  6  6     0.20     0.02
  14      1.12241396    -0.33699726  -114.21128047    -0.00000000     0.00000001  0.88D-15  0.90D-15  6  1     0.21     0.02
  15      1.12241396    -0.33699727  -114.21128047    -0.00000000     0.00000000  0.14D-15  0.15D-15  6  4     0.23     0.02
  16      1.12241396    -0.33699726  -114.21128047     0.00000000    -0.00000000  0.20D-16  0.19D-16  6  5     0.24     0.02
  17      1.12241396    -0.33699727  -114.21128047    -0.00000000    -0.00000000  0.52D-18  0.66D-18  6  3     0.26     0.02
  18      1.12241396    -0.33699727  -114.21128047     0.00000000    -0.00000000  0.88D-19  0.12D-18  6  2     0.27     0.02

 Norm of t1 vector:      0.08026093      S-energy:    -0.00000000      T1 diagnostic:  0.01418826
                                                                       D1 diagnostic:  0.04815587

 Doubles amplitudes (print threshold =  0.100E+00):

         I         J         SYM. A    SYM. B    A         B      T(IJ, AB)

         7         7         1         1         1         1     -0.13038327


 RESULTS
 =======

  Reference energy                   -113.874283208856
  CCSD singlet pair energy             -0.232103751987
  CCSD triplet pair energy             -0.104893513016
  CCSD correlation energy              -0.336997265018

 !CCSD total energy                  -114.211280473874

 Timing summary (sec):

 STEP                 CPU(USER)    SYS     CPU(TOT)    WALL
 CCSD iterations         0.27      0.07      0.34      0.32

 Program statistics:

 Available memory in ccsd:               849999644
 Min. memory needed in ccsd:                107037
 Max. memory used in ccsd:                  128901
 Max. memory used in cckext:                153910 (18 integral passes)

 Reset NCCKEXT to 0 because of MPP

 Starting XCCSD/XCC2 program for first-order properties. Author: T. Korona (2005)

 CCSD density matrix <exp(S)|exp(-T) X exp(T)> (Author: Tatiana Korona)    2005

 Make S_1 and S_2 up to T^3 order, excluding terms of high W order (no T_1^3 and no T_1^2 T_2)


 Time for subroutine s1_2:    0.00 sec.


 Time for subroutine make_s2_3:    0.03 sec.


 CPU time for XCCSD density          0.11 sec.

 Nonhermicity of matrix, MaxEl=   0.193E-02 SNorm=   0.615E-02

 Properties from XCCSD      density matrix

 S_1 and S_2 operator through the 3 MBPT order used

                                           X              Y              Z              length
 Dipole moment Hartree-Fock       :    -0.19059430    -1.07106439    -0.00000000        1.08789021
 Dipole moment - correlation part :     0.05006421     0.28134101     0.00000000        0.28576072
 XCCSD Dipole moment total:            -0.14053009    -0.78972338    -0.00000000        0.80212949
 Angle (deg) between HF and correlation part   : 180.000
 Angle (deg) between HF and total dipole moment:   0.000


 **********************************************************************************************************************************
 DATASETS  * FILE   NREC   LENGTH (MB)   RECORD NAMES
              1      19       20.73       500      610      700      900      950      970     1000      129      960     1100   
                                          VAR    BASINP    GEOM    SYMINP    ZMAT    AOBASIS   BASIS     P2S    ABASIS      S 
                                         1400     1410     1200     1210     1080     1600     1650     1700     1380   
                                           T        V       H0       H01     AOSYM     SMH    MOLCAS    OPER     JKOP   

              2       4        0.45       700     1000      520     2100   
                                         GEOM     BASIS   MCVARS     RHF  

 PROGRAMS   *        TOTAL      CCSD       MP2       RHF       INT
 CPU TIMES  *         0.94      0.43      0.16      0.05      0.20
 REAL TIME  *         1.45 SEC
 DISK USED  *        81.56 MB      
 SF USED    *         6.35 MB      
 GA USED    *         0.00 MB       (max)       0.00 MB       (current)
 **********************************************************************************************************************************


1PROGRAM * QCI (Closed-shell quadratic CI)     Authors: C. Hampel, H.-J. Werner, 1991, M. Deegan, P.J. Knowles, 1992


 Convergence thresholds:  THRVAR = 1.00D-08  THRDEN = 1.00D-10

 Number of closed-shell orbitals:   8 (   8 )
 Number of external orbitals:      30 (  30 )

 Molecular orbitals read from record     2100.2  Type=RHF/CANONICAL (state 1.1)

 Number of N-1 electron functions:               8
 Number of N-2 electron functions:              36
 Number of singly external CSFs:               240
 Number of doubly external CSFs:             28920
 Total number of CSFs:                       29161

 Length of J-op  integral file:               0.00 MB
 Length of K-op  integral file:               0.10 MB

 Coulomb and exchange operators available. No transformation done.

 3-external integrals restored

 Reference energy:                   -113.87428321

 MP2 singlet pair energy:              -0.20125980
 MP2 triplet pair energy:              -0.12054904
 MP2 correlation energy:               -0.32180885
 MP2 total energy:                   -114.19609206

 SCS-MP2 correlation energy:           -0.31652006   (PS=  1.200000  PT=  0.333333)
 SCS-MP2 total energy:               -114.19080327

 ITER.      SQ.NORM     CORR.ENERGY   TOTAL ENERGY   ENERGY CHANGE        DEN1      VAR(S)    VAR(P)  DIIS     TIME  TIME/IT
   1      1.10368536    -0.33531053  -114.20959374    -0.01350168    -0.00248808  0.29D-02  0.22D-02  1  1     0.01     0.02
   2      1.11478659    -0.33776970  -114.21205291    -0.00245917    -0.01024669  0.66D-04  0.48D-03  2  2     0.03     0.02
   3      1.12085392    -0.33822596  -114.21250917    -0.00045626    -0.00272262  0.79D-04  0.31D-04  3  3     0.04     0.02
   4      1.12345593    -0.33831970  -114.21260290    -0.00009373    -0.00083546  0.53D-05  0.46D-05  4  4     0.05     0.02
   5      1.12441457    -0.33832974  -114.21261295    -0.00001004    -0.00020360  0.75D-06  0.31D-06  5  5     0.06     0.02
   6      1.12459185    -0.33832468  -114.21260788     0.00000506    -0.00001629  0.55D-07  0.26D-07  6  6     0.08     0.02
   7      1.12462627    -0.33832468  -114.21260789    -0.00000000    -0.00000237  0.45D-08  0.37D-08  6  2     0.09     0.02
   8      1.12463213    -0.33832438  -114.21260759     0.00000030     0.00000002  0.84D-09  0.31D-09  6  1     0.10     0.02
   9      1.12463637    -0.33832432  -114.21260753     0.00000006    -0.00000072  0.19D-10  0.44D-10  6  3     0.12     0.02
  10      1.12463587    -0.33832434  -114.21260755    -0.00000002     0.00000033  0.53D-11  0.20D-11  6  5     0.13     0.02
  11      1.12463608    -0.33832434  -114.21260755    -0.00000000    -0.00000002  0.32D-12  0.32D-12  6  4     0.14     0.02
  12      1.12463607    -0.33832434  -114.21260755    -0.00000000     0.00000000  0.10D-12  0.39D-13  6  6     0.16     0.02
  13      1.12463607    -0.33832434  -114.21260755     0.00000000    -0.00000001  0.56D-14  0.72D-14  6  1     0.17     0.02
  14      1.12463605    -0.33832434  -114.21260755    -0.00000000     0.00000000  0.95D-15  0.57D-15  6  2     0.18     0.02
  15      1.12463605    -0.33832434  -114.21260755    -0.00000000     0.00000000  0.15D-15  0.11D-15  6  3     0.20     0.02
  16      1.12463605    -0.33832434  -114.21260755    -0.00000000     0.00000000  0.35D-16  0.11D-16  6  5     0.21     0.02
  17      1.12463605    -0.33832434  -114.21260755    -0.00000000     0.00000000  0.80D-17  0.20D-17  6  4     0.22     0.02
  18      1.12463605    -0.33832434  -114.21260755     0.00000000    -0.00000000  0.52D-18  0.35D-18  6  6     0.24     0.02

 Norm of t1 vector:      0.08391112      S-energy:    -0.00000000      T1 diagnostic:  0.01483353

 Doubles amplitudes (print threshold =  0.500E-01):

         I         J         SYM. A    SYM. B    A         B      T(IJ, AB)

         7         7         1         1         1         1     -0.13108268


 RESULTS
 =======

  Reference energy                   -113.874283208856

  Correlated core orbitals:             1.1       2.1
  Orbital energies:                   -20.5735  -11.3420
 
  QCISD core-core energy               -0.001056961209
  QCISD core-valence energy            -0.003521382144
  QCISD valence correlation energy     -0.333746000971
 
  QCISD singlet pair energy            -0.232682981200
  QCISD triplet pair energy            -0.105641363111
  QCISD correlation energy             -0.338324344324

 !QCISD total energy                 -114.212607553180

 Timing summary (sec):

 STEP                 CPU(USER)    SYS     CPU(TOT)    WALL
 CCSD iterations         0.24      0.05      0.29      0.29

 Program statistics:

 Available memory in ccsd:               849999644
 Min. memory needed in ccsd:                107037
 Max. memory used in ccsd:                  128901
 Max. memory used in cckext:                153910 (18 integral passes)

 Starting CP-QCISD iterations.     Author: G. Rauhut (1999)

 Loop  Var(Pairs) Var(Singles)  Time/Loop   Tot-Time   DIIS
   1     0.87D-01     0.39D-21        0.0        0.0   0  0
   2     0.17D-02     0.47D-02        0.0        0.0   1  1
   3     0.38D-03     0.25D-03        0.0        0.0   2  2
   4     0.55D-04     0.19D-03        0.0        0.1   3  3
   5     0.66D-05     0.16D-04        0.0        0.1   4  4
   6     0.35D-06     0.20D-05        0.0        0.1   5  5
   7     0.55D-07     0.12D-06        0.0        0.1   6  6
   8     0.65D-08     0.78D-08        0.0        0.1   6  2
   9     0.74D-09     0.66D-09        0.0        0.2   6  1
  10     0.79D-10     0.79D-10        0.0        0.2   6  3

 Time needed for computing effective density matrices:      0.0 sec.

 Starting Coupled-perturbed Hartree-Fock, convergence threshold= 1.0D-06

 ITER  FOCK  DIIS      VAR         VARC       CPU
   1     0     1    0.62D-01    0.00D+00     0.00
   2     1     1    0.25D-01    0.00D+00     0.00
   3     1     2    0.73D-02    0.00D+00     0.00
   4     1     3    0.20D-02    0.00D+00     0.00
   5     1     4    0.79D-03    0.00D+00     0.00
   6     1     5    0.23D-03    0.00D+00     0.01
   7     1     6    0.43D-04    0.00D+00     0.01
   8     1     6    0.89D-05    0.00D+00     0.01
   9     1     6    0.12D-05    0.00D+00     0.01
  10     1     6    0.32D-06    0.00D+00     0.01

 CPHF convergence reached in  9 macroiterations and    0 microiterations.   Accuracy: 3.1671D-07

 CPHF solution written to record  8501.2

 Dipole moments (unrelaxed):           -0.13803711    -0.77571379    -0.00000000
 Orbital relaxation contribution:      -0.01431156    -0.08042529    -0.00000000
 !!QCISD STATE 1.1 Dipole moment       -0.15234867    -0.85613908    -0.00000000
 Dipole moment /Debye                  -0.38720632    -2.17594597    -0.00000000
 
 CPU-time for right hand side:                         0.04 sec
 CPU-time for coupled-perturbed hartree-fock:          0.01 sec


 **********************************************************************************************************************************
 DATASETS  * FILE   NREC   LENGTH (MB)   RECORD NAMES
              1      19       20.73       500      610      700      900      950      970     1000      129      960     1100   
                                          VAR    BASINP    GEOM    SYMINP    ZMAT    AOBASIS   BASIS     P2S    ABASIS      S 
                                         1400     1410     1200     1210     1080     1600     1650     1700     1380   
                                           T        V       H0       H01     AOSYM     SMH    MOLCAS    OPER     JKOP   

              2       6        0.50       700     1000      520     2100     8500     8501   
                                         GEOM     BASIS   MCVARS     RHF     CPHF     CPHF   

 PROGRAMS   *        TOTAL     QCISD      CCSD       MP2       RHF       INT
 CPU TIMES  *         1.46      0.51      0.43      0.16      0.05      0.20
 REAL TIME  *         2.08 SEC
 DISK USED  *        88.07 MB      
 SF USED    *         9.68 MB      
 GA USED    *         0.00 MB       (max)       0.00 MB       (current)
 **********************************************************************************************************************************


1PROGRAM * QCI (Closed-shell quadratic CI)     Authors: C. Hampel, H.-J. Werner, 1991, M. Deegan, P.J. Knowles, 1992


 Convergence thresholds:  THRVAR = 1.00D-08  THRDEN = 1.00D-10

 QCI(T)     terms to be evaluated (factor= 2.000)


 Number of closed-shell orbitals:   8 (   8 )
 Number of external orbitals:      30 (  30 )

 Molecular orbitals read from record     2100.2  Type=RHF/CANONICAL (state 1.1)

 Number of N-1 electron functions:               8
 Number of N-2 electron functions:              36
 Number of singly external CSFs:               240
 Number of doubly external CSFs:             28920
 Total number of CSFs:                       29161

 Length of J-op  integral file:               0.00 MB
 Length of K-op  integral file:               0.10 MB

 Memory could be reduced to 0.85 Mwords without degradation in triples

 Coulomb and exchange operators available. No transformation done.

 Reference energy:                   -113.87428321

 MP2 singlet pair energy:              -0.20125980
 MP2 triplet pair energy:              -0.12054904
 MP2 correlation energy:               -0.32180885
 MP2 total energy:                   -114.19609206

 SCS-MP2 correlation energy:           -0.31652006   (PS=  1.200000  PT=  0.333333)
 SCS-MP2 total energy:               -114.19080327

 ITER.      SQ.NORM     CORR.ENERGY   TOTAL ENERGY   ENERGY CHANGE        DEN1      VAR(S)    VAR(P)  DIIS     TIME  TIME/IT
   1      1.10368536    -0.33531053  -114.20959374    -0.01350168    -0.00248808  0.29D-02  0.22D-02  1  1     0.02     0.02
   2      1.11478659    -0.33776970  -114.21205291    -0.00245917    -0.01024669  0.66D-04  0.48D-03  2  2     0.03     0.02
   3      1.12085392    -0.33822596  -114.21250917    -0.00045626    -0.00272262  0.79D-04  0.31D-04  3  3     0.04     0.02
   4      1.12345593    -0.33831970  -114.21260290    -0.00009373    -0.00083546  0.53D-05  0.46D-05  4  4     0.06     0.02
   5      1.12441457    -0.33832974  -114.21261295    -0.00001004    -0.00020360  0.75D-06  0.31D-06  5  5     0.07     0.02
   6      1.12459185    -0.33832468  -114.21260788     0.00000506    -0.00001629  0.55D-07  0.26D-07  6  6     0.08     0.02
   7      1.12462627    -0.33832468  -114.21260789    -0.00000000    -0.00000237  0.45D-08  0.37D-08  6  2     0.10     0.02
   8      1.12463213    -0.33832438  -114.21260759     0.00000030     0.00000002  0.84D-09  0.31D-09  6  1     0.11     0.02
   9      1.12463637    -0.33832432  -114.21260753     0.00000006    -0.00000072  0.19D-10  0.44D-10  6  3     0.13     0.02
  10      1.12463587    -0.33832434  -114.21260755    -0.00000002     0.00000033  0.53D-11  0.20D-11  6  5     0.14     0.02
  11      1.12463608    -0.33832434  -114.21260755    -0.00000000    -0.00000002  0.32D-12  0.32D-12  6  4     0.15     0.02
  12      1.12463607    -0.33832434  -114.21260755    -0.00000000     0.00000000  0.10D-12  0.39D-13  6  6     0.17     0.02
  13      1.12463607    -0.33832434  -114.21260755     0.00000000    -0.00000001  0.56D-14  0.72D-14  6  1     0.18     0.02
  14      1.12463605    -0.33832434  -114.21260755    -0.00000000     0.00000000  0.95D-15  0.57D-15  6  2     0.19     0.02
  15      1.12463605    -0.33832434  -114.21260755    -0.00000000     0.00000000  0.15D-15  0.11D-15  6  3     0.21     0.02
  16      1.12463605    -0.33832434  -114.21260755    -0.00000000     0.00000000  0.35D-16  0.11D-16  6  5     0.22     0.02
  17      1.12463605    -0.33832434  -114.21260755    -0.00000000     0.00000000  0.80D-17  0.20D-17  6  4     0.24     0.02
  18      1.12463605    -0.33832434  -114.21260755     0.00000000    -0.00000000  0.52D-18  0.35D-18  6  6     0.25     0.02

 Norm of t1 vector:      0.08391112      S-energy:    -0.00000000      T1 diagnostic:  0.01483353

 Doubles amplitudes (print threshold =  0.500E-01):

         I         J         SYM. A    SYM. B    A         B      T(IJ, AB)

         7         7         1         1         1         1     -0.13108268


 CPU time for RHS:                0.03 sec
 Total CPU time for triples:      0.21 sec


 RESULTS
 =======

  Reference energy                   -113.874283208856

  Correlated core orbitals:             1.1       2.1
  Orbital energies:                   -20.5735  -11.3420
 
  QCISD core-core energy               -0.001056961209
  QCISD core-valence energy            -0.003521382144
  QCISD valence correlation energy     -0.333746000971
 
  QCISD singlet pair energy            -0.232682981200
  QCISD triplet pair energy            -0.105641363111
  QCISD correlation energy             -0.338324344324

  Triples (T) contribution             -0.009187431462
  Total correlation energy             -0.347511775786

  QCISD total energy                 -114.212607553180
  QCISD[T] energy                    -114.223910548179
 !QCISD(T) total energy              -114.221794984642

 Timing summary (sec):

 STEP                 CPU(USER)    SYS     CPU(TOT)    WALL
 Transformation          0.01      0.00      0.01      0.00
 CCSD iterations         0.24      0.05      0.29      0.29
 Triples                 0.21      0.00      0.21      0.22

 Program statistics:

 Available memory in ccsd:               849999644
 Min. memory needed in ccsd:                107037
 Max. memory used in ccsd:                  128901
 Max. memory used in cckext:                153910 (18 integral passes)

 Starting CP-QCISD(T) iterations.     Author: G. Rauhut (1999); triples terms M. P. Hodges (2004)

 Loop  Var(Pairs) Var(Singles)  Time/Loop   Tot-Time   DIIS
   1     0.10D+00     0.14D-02        0.0        0.0   0  0
   2     0.21D-02     0.58D-02        0.0        0.0   1  1
   3     0.49D-03     0.21D-03        0.0        0.0   2  2
   4     0.79D-04     0.23D-03        0.0        0.1   3  3
   5     0.80D-05     0.19D-04        0.0        0.1   4  4
   6     0.40D-06     0.23D-05        0.0        0.1   5  5
   7     0.61D-07     0.16D-06        0.0        0.1   6  6
   8     0.81D-08     0.97D-08        0.0        0.1   6  1
   9     0.93D-09     0.10D-08        0.0        0.2   6  2
  10     0.95D-10     0.56D-10        0.0        0.2   6  3

 Time needed for computing effective density matrices:      0.0 sec.

 Starting Coupled-perturbed Hartree-Fock, convergence threshold= 1.0D-06

 ITER  FOCK  DIIS      VAR         VARC       CPU
   1     0     1    0.24D-01    0.00D+00     0.00
   2     1     1    0.11D-01    0.00D+00     0.00
   3     1     2    0.20D-02    0.00D+00     0.00
   4     1     3    0.34D-03    0.00D+00     0.00
   5     1     4    0.11D-03    0.00D+00     0.01
   6     1     5    0.43D-04    0.00D+00     0.01
   7     1     6    0.13D-04    0.00D+00     0.01
   8     1     6    0.33D-05    0.00D+00     0.01
   9     1     6    0.44D-06    0.00D+00     0.01

 CPHF convergence reached in  8 macroiterations and    0 microiterations.   Accuracy: 4.3629D-07

 CPHF solution written to record  8501.2

 Dipole moments (unrelaxed):           -0.14183189    -0.79703900    -0.00000000
 Orbital relaxation contribution:      -0.00567532    -0.03189304    -0.00000000
 !!QCISD(T) STATE 1.1 Dipole moment    -0.14750721    -0.82893203    -0.00000000
 Dipole moment /Debye                  -0.37490138    -2.10679707    -0.00000000
 
 CPU-time for right hand side:                         0.04 sec
 CPU-time for coupled-perturbed hartree-fock:          0.01 sec


 **********************************************************************************************************************************
 DATASETS  * FILE   NREC   LENGTH (MB)   RECORD NAMES
              1      19       20.73       500      610      700      900      950      970     1000      129      960     1100   
                                          VAR    BASINP    GEOM    SYMINP    ZMAT    AOBASIS   BASIS     P2S    ABASIS      S 
                                         1400     1410     1200     1210     1080     1600     1650     1700     1380   
                                           T        V       H0       H01     AOSYM     SMH    MOLCAS    OPER     JKOP   

              2       7        1.40       700     1000      520     2100     8500     8501     3791   
                                         GEOM     BASIS   MCVARS     RHF     CPHF     CPHF     TGRAD   

 PROGRAMS   *        TOTAL  QCISD(T)     QCISD      CCSD       MP2       RHF       INT
 CPU TIMES  *         2.20      0.74      0.51      0.43      0.16      0.05      0.20
 REAL TIME  *         2.92 SEC
 DISK USED  *        90.75 MB      
 SF USED    *        10.36 MB      
 GA USED    *         0.00 MB       (max)       0.00 MB       (current)
 **********************************************************************************************************************************

 QCISD(T)/cc-pVDZ energy=   -114.221794984642

        QCISD(T)        QCISD           CCSD            MP2             RHF-SCF 
   -114.22179498   -114.21260755   -114.21128047   -114.19609206   -113.87428321
 **********************************************************************************************************************************
 Variable memory released
