[Molden Format]                                                                 
[ATOMS] AU                                                                      
O        1    8        0.0000000000        0.0000000000        0.1286197705     
H        2    1        0.0000000000       -1.4176813528       -1.0206445452     
H        3    1        0.0000000000        1.4176813528       -1.0206445452     
[Molden Format]                                                                 
[GTO]                                                                           
  1 0
s   9 1.00
   11720.0000000000       7.100000000000000E-004                                
   1759.00000000000       5.470000000000000E-003                                
   400.800000000000       2.783700000000000E-002                                
   113.700000000000       0.104800000000000                                     
   37.0300000000000       0.283062000000000                                     
   13.2700000000000       0.448719000000000                                     
   5.02500000000000       0.270952000000000                                     
   1.01300000000000       1.545800000000000E-002                                
  0.302300000000000      -2.585000000000000E-003                                
s   9 1.00
   11720.0000000000      -1.600000000000000E-004                                
   1759.00000000000      -1.263000000000000E-003                                
   400.800000000000      -6.267000000000000E-003                                
   113.700000000000      -2.571600000000000E-002                                
   37.0300000000000      -7.092400000000000E-002                                
   13.2700000000000      -0.165411000000000                                     
   5.02500000000000      -0.116955000000000                                     
   1.01300000000000       0.557368000000000                                     
  0.302300000000000       0.572759000000000                                     
s   9 1.00
   11720.0000000000       0.000000000000000E+000                                
   1759.00000000000       0.000000000000000E+000                                
   400.800000000000       0.000000000000000E+000                                
   113.700000000000       0.000000000000000E+000                                
   37.0300000000000       0.000000000000000E+000                                
   13.2700000000000       0.000000000000000E+000                                
   5.02500000000000       0.000000000000000E+000                                
   1.01300000000000       0.000000000000000E+000                                
  0.302300000000000        1.00000000000000                                     
p   4 1.00
   17.7000000000000       4.301800000000000E-002                                
   3.85400000000000       0.228913000000000                                     
   1.04600000000000       0.508728000000000                                     
  0.275300000000000       0.460531000000000                                     
p   4 1.00
   17.7000000000000       0.000000000000000E+000                                
   3.85400000000000       0.000000000000000E+000                                
   1.04600000000000       0.000000000000000E+000                                
  0.275300000000000        1.00000000000000                                     
d   1 1.00
   1.18500000000000        1.00000000000000                                     
 
  2 0
s   4 1.00
   13.0100000000000       1.968500000000000E-002                                
   1.96200000000000       0.137977000000000                                     
  0.444600000000000       0.478148000000000                                     
  0.122000000000000       0.501240000000000                                     
s   4 1.00
   13.0100000000000       0.000000000000000E+000                                
   1.96200000000000       0.000000000000000E+000                                
  0.444600000000000       0.000000000000000E+000                                
  0.122000000000000        1.00000000000000                                     
p   1 1.00
  0.727000000000000        1.00000000000000                                     
 
  3 0
s   4 1.00
   13.0100000000000       1.968500000000000E-002                                
   1.96200000000000       0.137977000000000                                     
  0.444600000000000       0.478148000000000                                     
  0.122000000000000       0.501240000000000                                     
s   4 1.00
   13.0100000000000       0.000000000000000E+000                                
   1.96200000000000       0.000000000000000E+000                                
  0.444600000000000       0.000000000000000E+000                                
  0.122000000000000        1.00000000000000                                     
p   1 1.00
  0.727000000000000        1.00000000000000                                     
 
                                                                                
[MO]
 Sym= A
 Ene=  -20.5533300849143     
 Spin= Alpha
 Occup= 1.0
  1        1.0003797058
  2        0.0021891424
  3       -0.0013812440
  4        0.0000000000
  5        0.0000000000
  6       -0.0025672553
  7        0.0000000000
  8        0.0000000000
  9        0.0016974505
 10       -0.0000605257
 11        0.0000486157
 12        0.0000119100
 13        0.0000000000
 14        0.0000000000
 15        0.0000000000
 16       -0.0003196273
 17        0.0005778595
 18        0.0000000000
 19       -0.0005370818
 20       -0.0004757614
 21       -0.0003196273
 22        0.0005778595
 23        0.0000000000
 24        0.0005370818
 25       -0.0004757614
 Sym= A
 Ene=  -1.33446238563547     
 Spin= Alpha
 Occup= 1.0
  1        0.0076613944
  2       -0.8719477994
  3        0.1196316858
  4        0.0000000000
  5        0.0000000000
  6        0.1155554858
  7        0.0000000000
  8        0.0000000000
  9       -0.0657444476
 10        0.0018268080
 11       -0.0009261975
 12       -0.0009006105
 13        0.0000000000
 14        0.0000000000
 15        0.0000000000
 16       -0.3255915548
 17        0.1530828218
 18        0.0000000000
 19       -0.0361434622
 20       -0.0212796449
 21       -0.3255915548
 22        0.1530828218
 23        0.0000000000
 24        0.0361434622
 25       -0.0212796449
 Sym= A
 Ene= -0.689867382401242     
 Spin= Alpha
 Occup= 1.0
  1        0.0000000000
  2        0.0000000000
  3        0.0000000000
  4        0.0000000000
  5        0.7144980519
  6        0.0000000000
  7        0.0000000000
  8       -0.1001599975
  9        0.0000000000
 10        0.0000000000
 11        0.0000000000
 12        0.0000000000
 13        0.0000000000
 14        0.0000000000
 15       -0.0268510623
 16       -0.5524816512
 17        0.1833091816
 18        0.0000000000
 19       -0.0223118161
 20       -0.0330409358
 21        0.5524816512
 22       -0.1833091816
 23        0.0000000000
 24       -0.0223118161
 25        0.0330409358
 Sym= A
 Ene= -0.570278240494707     
 Spin= Alpha
 Occup= 1.0
  1        0.0023633330
  2       -0.3003131718
  3       -0.1821605538
  4        0.0000000000
  5        0.0000000000
  6       -0.7887874092
  7        0.0000000000
  8        0.0000000000
  9        0.0040433262
 10       -0.0074556839
 11       -0.0029694207
 12        0.0104251046
 13        0.0000000000
 14        0.0000000000
 15        0.0000000000
 16        0.3586806367
 17       -0.1377170186
 18        0.0000000000
 19        0.0322785425
 20       -0.0063241929
 21        0.3586806367
 22       -0.1377170186
 23        0.0000000000
 24       -0.0322785425
 25       -0.0063241929
 Sym= A
 Ene= -0.493487246176653     
 Spin= Alpha
 Occup= 1.0
  1        0.0000000000
  2        0.0000000000
  3        0.0000000000
  4        0.9205693470
  5        0.0000000000
  6        0.0000000000
  7        0.0715435574
  8        0.0000000000
  9        0.0000000000
 10        0.0000000000
 11        0.0000000000
 12        0.0000000000
 13        0.0000000000
 14       -0.0183357444
 15        0.0000000000
 16        0.0000000000
 17        0.0000000000
 18        0.0309271721
 19        0.0000000000
 20        0.0000000000
 21        0.0000000000
 22        0.0000000000
 23        0.0309271721
 24        0.0000000000
 25        0.0000000000
 Sym= A
 Ene=  0.183594739554638     
 Spin= Alpha
 Occup= 0.0
  1        0.0517598731
  2       -0.1404947966
  3       -0.9079538069
  4        0.0000000000
  5        0.0000000000
  6        0.2862576008
  7        0.0000000000
  8        0.0000000000
  9        0.2145785768
 10        0.0070670430
 11       -0.0022777418
 12       -0.0047893012
 13        0.0000000000
 14        0.0000000000
 15        0.0000000000
 16        0.0984357646
 17        0.7741143581
 18        0.0000000000
 19        0.0164048973
 20        0.0161328332
 21        0.0984357646
 22        0.7741143581
 23        0.0000000000
 24       -0.0164048973
 25        0.0161328332
 Sym= A
 Ene=  0.255262529208173     
 Spin= Alpha
 Occup= 0.0
  1        0.0000000000
  2        0.0000000000
  3        0.0000000000
  4        0.0000000000
  5        0.4180699012
  6        0.0000000000
  7        0.0000000000
  8        0.4750691954
  9        0.0000000000
 10        0.0000000000
 11        0.0000000000
 12        0.0000000000
 13        0.0000000000
 14        0.0000000000
 15       -0.0203629644
 16        0.0512925957
 17        1.4153868553
 18        0.0000000000
 19        0.0198410775
 20        0.0162131835
 21       -0.0512925957
 22       -1.4153868553
 23        0.0000000000
 24        0.0198410775
 25       -0.0162131835
 Sym= A
 Ene=  0.774793542670251     
 Spin= Alpha
 Occup= 0.0
  1        0.0000000000
  2        0.0000000000
  3        0.0000000000
  4        0.0000000000
  5        0.3826055559
  6        0.0000000000
  7        0.0000000000
  8        0.2699382827
  9        0.0000000000
 10        0.0000000000
 11        0.0000000000
 12        0.0000000000
 13        0.0000000000
 14        0.0000000000
 15        0.1107518203
 16        1.6063265303
 17       -1.5158941636
 18        0.0000000000
 19       -0.0719532037
 20       -0.1440010852
 21       -1.6063265303
 22        1.5158941636
 23        0.0000000000
 24       -0.0719532037
 25        0.1440010852
 Sym= A
 Ene=  0.857735659552967     
 Spin= Alpha
 Occup= 0.0
  1        0.0719241456
  2        0.5222931645
  3       -0.6579518926
  4        0.0000000000
  5        0.0000000000
  6       -0.5115913966
  7        0.0000000000
  8        0.0000000000
  9        0.2688346600
 10        0.0541940382
 11       -0.0504253914
 12       -0.0037686468
 13        0.0000000000
 14        0.0000000000
 15        0.0000000000
 16       -1.3248917589
 17        1.2212265662
 18        0.0000000000
 19        0.2927049141
 20        0.0740600939
 21       -1.3248917589
 22        1.2212265662
 23        0.0000000000
 24       -0.2927049141
 25        0.0740600939
 Sym= A
 Ene=   1.16640813201574     
 Spin= Alpha
 Occup= 0.0
  1        0.0107537989
  2        0.2681750085
  3        0.5537701381
  4        0.0000000000
  5        0.0000000000
  6        1.0802624454
  7        0.0000000000
  8        0.0000000000
  9       -1.7738457702
 10        0.0019339184
 11       -0.0104302888
 12        0.0084963705
 13        0.0000000000
 14        0.0000000000
 15        0.0000000000
 16       -0.9530182440
 17        0.3800839516
 18        0.0000000000
 19       -0.0634249384
 20       -0.2608824358
 21       -0.9530182440
 22        0.3800839516
 23        0.0000000000
 24        0.0634249384
 25       -0.2608824358
 Sym= A
 Ene=   1.19956184898418     
 Spin= Alpha
 Occup= 0.0
  1        0.0000000000
  2        0.0000000000
  3        0.0000000000
  4        1.4098163178
  5        0.0000000000
  6        0.0000000000
  7       -1.6668192535
  8        0.0000000000
  9        0.0000000000
 10        0.0000000000
 11        0.0000000000
 12        0.0000000000
 13        0.0000000000
 14       -0.0028123965
 15        0.0000000000
 16        0.0000000000
 17        0.0000000000
 18       -0.0176905050
 19        0.0000000000
 20        0.0000000000
 21        0.0000000000
 22        0.0000000000
 23       -0.0176905050
 24        0.0000000000
 25        0.0000000000
 Sym= A
 Ene=   1.25656327204770     
 Spin= Alpha
 Occup= 0.0
  1        0.0000000000
  2        0.0000000000
  3        0.0000000000
  4        0.0000000000
  5        1.0872536278
  6        0.0000000000
  7        0.0000000000
  8       -2.2446302616
  9        0.0000000000
 10        0.0000000000
 11        0.0000000000
 12        0.0000000000
 13        0.0000000000
 14        0.0000000000
 15        0.0433939998
 16       -0.6173448069
 17       -0.5107683266
 18        0.0000000000
 19       -0.2908341636
 20       -0.1973222409
 21        0.6173448069
 22        0.5107683266
 23        0.0000000000
 24       -0.2908341636
 25        0.1973222409
 Sym= A
 Ene=   1.42173072581751     
 Spin= Alpha
 Occup= 0.0
  1        0.1762912610
  2        0.9317955763
  3       -0.8982342564
  4        0.0000000000
  5        0.0000000000
  6        0.1923798438
  7        0.0000000000
  8        0.0000000000
  9       -0.8733838601
 10        0.0295571716
 11        0.0385556667
 12       -0.0681128384
 13        0.0000000000
 14        0.0000000000
 15        0.0000000000
 16       -0.6329589537
 17        0.5044628317
 18        0.0000000000
 19       -0.3665746017
 20        0.5191370801
 21       -0.6329589537
 22        0.5044628317
 23        0.0000000000
 24        0.3665746017
 25        0.5191370801
 Sym= A
 Ene=   1.48269863754417     
 Spin= Alpha
 Occup= 0.0
  1        0.0000000000
  2        0.0000000000
  3        0.0000000000
  4        0.0000000000
  5        0.0000000000
  6        0.0000000000
  7        0.0000000000
  8        0.0000000000
  9        0.0000000000
 10        0.0000000000
 11        0.0000000000
 12        0.0000000000
 13        0.1333834156
 14        0.0000000000
 15        0.0000000000
 16        0.0000000000
 17        0.0000000000
 18       -0.6869920896
 19        0.0000000000
 20        0.0000000000
 21        0.0000000000
 22        0.0000000000
 23        0.6869920896
 24        0.0000000000
 25        0.0000000000
 Sym= A
 Ene=   1.65865014410555     
 Spin= Alpha
 Occup= 0.0
  1        0.0000000000
  2        0.0000000000
  3        0.0000000000
  4        0.0045490380
  5        0.0000000000
  6        0.0000000000
  7        0.6357340845
  8        0.0000000000
  9        0.0000000000
 10        0.0000000000
 11        0.0000000000
 12        0.0000000000
 13        0.0000000000
 14        0.1609940073
 15        0.0000000000
 16        0.0000000000
 17        0.0000000000
 18       -0.7617150699
 19        0.0000000000
 20        0.0000000000
 21        0.0000000000
 22        0.0000000000
 23       -0.7617150699
 24        0.0000000000
 25        0.0000000000
 Sym= A
 Ene=   1.86368731169588     
 Spin= Alpha
 Occup= 0.0
  1        0.7343561833
  2        3.1769997582
  3       -4.8588834647
  4        0.0000000000
  5        0.0000000000
  6        0.1475247891
  7        0.0000000000
  8        0.0000000000
  9        0.9022893392
 10       -0.0869279943
 11        0.0238541179
 12        0.0630738764
 13        0.0000000000
 14        0.0000000000
 15        0.0000000000
 16        1.4025934005
 17       -0.3161432507
 18        0.0000000000
 19        0.3533450824
 20        0.0163101067
 21        1.4025934005
 22       -0.3161432507
 23        0.0000000000
 24       -0.3533450824
 25        0.0163101067
 Sym= A
 Ene=   1.94070084993995     
 Spin= Alpha
 Occup= 0.0
  1        0.0000000000
  2        0.0000000000
  3        0.0000000000
  4        0.0000000000
  5        0.0315519045
  6        0.0000000000
  7        0.0000000000
  8        0.8364722909
  9        0.0000000000
 10        0.0000000000
 11        0.0000000000
 12        0.0000000000
 13        0.0000000000
 14        0.0000000000
 15        0.0304603144
 16        0.6121559505
 17       -0.2213298319
 18        0.0000000000
 19       -0.4678229143
 20        0.7023183295
 21       -0.6121559505
 22        0.2213298319
 23        0.0000000000
 24       -0.4678229143
 25       -0.7023183295
 Sym= A
 Ene=   2.42680169142768     
 Spin= Alpha
 Occup= 0.0
  1        0.0000000000
  2        0.0000000000
  3        0.0000000000
  4        0.0000000000
  5        1.1900121407
  6        0.0000000000
  7        0.0000000000
  8       -0.4301010320
  9        0.0000000000
 10        0.0000000000
 11        0.0000000000
 12        0.0000000000
 13        0.0000000000
 14        0.0000000000
 15        0.1316269642
 16        0.4590897683
 17        0.1025636633
 18        0.0000000000
 19        0.7328698946
 20        0.5363792917
 21       -0.4590897683
 22       -0.1025636633
 23        0.0000000000
 24        0.7328698946
 25       -0.5363792917
 Sym= A
 Ene=   2.47411111778687     
 Spin= Alpha
 Occup= 0.0
  1        0.2605770484
  2        1.3657120848
  3        0.0183781133
  4        0.0000000000
  5        0.0000000000
  6       -0.9899049903
  7        0.0000000000
  8        0.0000000000
  9        0.2782401129
 10        0.1199974491
 11       -0.0932668088
 12       -0.0267306403
 13        0.0000000000
 14        0.0000000000
 15        0.0000000000
 16       -0.7898811951
 17        0.2333098296
 18        0.0000000000
 19       -0.7218956481
 20       -0.5610239229
 21       -0.7898811951
 22        0.2333098296
 23        0.0000000000
 24        0.7218956481
 25       -0.5610239229
 Sym= A
 Ene=   3.29122300766431     
 Spin= Alpha
 Occup= 0.0
  1        0.0000000000
  2        0.0000000000
  3        0.0000000000
  4        0.0227085898
  5        0.0000000000
  6        0.0000000000
  7       -0.3203238338
  8        0.0000000000
  9        0.0000000000
 10        0.0000000000
 11        0.0000000000
 12        0.0000000000
 13        0.0000000000
 14        1.0433307775
 15        0.0000000000
 16        0.0000000000
 17        0.0000000000
 18        0.3972651363
 19        0.0000000000
 20        0.0000000000
 21        0.0000000000
 22        0.0000000000
 23        0.3972651363
 24        0.0000000000
 25        0.0000000000
 Sym= A
 Ene=   3.32092190835242     
 Spin= Alpha
 Occup= 0.0
  1        0.0000000000
  2        0.0000000000
  3        0.0000000000
  4        0.0000000000
  5        0.0000000000
  6        0.0000000000
  7        0.0000000000
  8        0.0000000000
  9        0.0000000000
 10        0.0000000000
 11        0.0000000000
 12        0.0000000000
 13        1.0606080485
 14        0.0000000000
 15        0.0000000000
 16        0.0000000000
 17        0.0000000000
 18        0.3631459298
 19        0.0000000000
 20        0.0000000000
 21        0.0000000000
 22        0.0000000000
 23       -0.3631459298
 24        0.0000000000
 25        0.0000000000
 Sym= A
 Ene=   3.50732298530707     
 Spin= Alpha
 Occup= 0.0
  1        0.0754320983
  2        0.2851582260
  3       -0.5568814718
  4        0.0000000000
  5        0.0000000000
  6       -0.0245678060
  7        0.0000000000
  8        0.0000000000
  9        0.4782889769
 10        0.1641821368
 11        0.4501194224
 12       -0.6143015592
 13        0.0000000000
 14        0.0000000000
 15        0.0000000000
 16        0.3786225892
 17       -0.1697429029
 18        0.0000000000
 19        0.3065229594
 20       -0.3347467709
 21        0.3786225892
 22       -0.1697429029
 23        0.0000000000
 24       -0.3065229594
 25       -0.3347467709
 Sym= A
 Ene=   3.83931632372290     
 Spin= Alpha
 Occup= 0.0
  1        0.1668128526
  2        0.4422235025
  3       -2.5330356355
  4        0.0000000000
  5        0.0000000000
  6        0.5743716399
  7        0.0000000000
  8        0.0000000000
  9        0.7165802992
 10        0.6376866751
 11       -0.4868544011
 12       -0.1508322740
 13        0.0000000000
 14        0.0000000000
 15        0.0000000000
 16        2.0988493504
 17       -0.8596317949
 18        0.0000000000
 19        0.6210760390
 20        0.4734279757
 21        2.0988493504
 22       -0.8596317949
 23        0.0000000000
 24       -0.6210760390
 25        0.4734279757
 Sym= A
 Ene=   4.15179681132490     
 Spin= Alpha
 Occup= 0.0
  1        0.0000000000
  2        0.0000000000
  3        0.0000000000
  4        0.0000000000
  5        0.6529236509
  6        0.0000000000
  7        0.0000000000
  8        0.8126238840
  9        0.0000000000
 10        0.0000000000
 11        0.0000000000
 12        0.0000000000
 13        0.0000000000
 14        0.0000000000
 15       -1.3272996419
 16        1.7984296595
 17       -0.6145886614
 18        0.0000000000
 19        0.5905545312
 20        0.5134450291
 21       -1.7984296595
 22        0.6145886614
 23        0.0000000000
 24        0.5905545312
 25       -0.5134450291
