
 Primary working directories    : /scratch/kmoore
 Secondary working directories  : /scratch/kmoore
 Wavefunction directory         : /scratch/kmoore/
 Main file repository           : /scratch/kmoore/

 SHA1      : b6b3a4772808bb2d43777f23454e145ddfe12dc3
 NAME      : 2015.1.1
 ARCHNAME  : linux/x86_64
 FC        : /soft/mvapich2/2.2b_psm/intel-15.0/bin/mpif90
 BLASLIB   : -L/soft/intel/15.0.1/composer_xe_2015.0.090/mkl/lib/intel64 -lmkl_intel_ilp64 -lmkl_sequential -lmkl_core
 id        : anlgov

 Nodes     nprocs
 b450         3
 Number of processes for MPI-2 version of Molpro:   nprocs(total)=    4   nprocs(compute)=    3   nprocs(helper)=    1

 Using customized tuning parameters: mindgm=1; mindgv=20; mindgc=4; mindgr=1; noblas=0; minvec=7
 default implementation of scratch files=sf  

 memory,500,m
 GTHRESH,energy=1d-8
 
 nosym
 angstrom
 Geometry = {
 C       -6.4864920998      4.4742869342     -1.4165189641
 C       -4.9673302969      4.4742853003     -1.4165175458
 H       -6.8630623797      5.1707101869     -2.1950718298
 H       -6.8630644324      4.8003221720     -0.4241231814
 H       -6.8630647597      3.4518296610     -1.6303629358
 H       -4.5907576418      5.4967425677     -1.2026735393
 H       -4.5907579628      4.1482500979     -2.4089133397
 H       -4.5907600135      3.7778620227     -0.6379647038
 }
 
 basis=cc-pVTZ
 {rhf}
 {ccsd(t)}
 {optg}
 {freq}
 
 

 Variables initialized (889), CPU time= 0.01 sec
 Commands  initialized (702), CPU time= 0.01 sec, 572 directives.
 Default parameters read. Elapsed time= 0.14 sec

 Checking input...
 Passed
1


                                         ***  PROGRAM SYSTEM MOLPRO  ***
                                       Copyright, TTI GmbH Stuttgart, 2015
                                    Version 2015.1 linked Jan  8 2016 07:59:11


 **********************************************************************************************************************************
 LABEL *                                                                                 
  64 bit mpp version                                                                     DATE: 13-Dec-18          TIME: 13:21:42  
 **********************************************************************************************************************************

 SHA1:             b6b3a4772808bb2d43777f23454e145ddfe12dc3
 **********************************************************************************************************************************

 THRESHOLDS:

 ZERO    =  1.00D-12  ONEINT  =  1.00D-12  TWOINT  =  1.00D-11  PREFAC  =  1.00D-14  LOCALI  =  1.00D-09  EORDER  =  1.00D-04
 ENERGY  =  1.00D-08  ETEST   =  0.00D+00  EDENS   =  0.00D+00  THRDEDEF=  1.00D-06  GRADIENT=  1.00D-02  STEP    =  1.00D-03
 ORBITAL =  1.00D-05  CIVEC   =  1.00D-05  COEFF   =  1.00D-04  PRINTCI =  5.00D-02  PUNCHCI =  9.90D+01  OPTGRAD =  3.00D-04
 OPTENERG=  1.00D-06  OPTSTEP =  3.00D-04  THRGRAD =  1.00D-10  COMPRESS=  1.00D-11  VARMIN  =  1.00D-07  VARMAX  =  1.00D-03
 THRDOUB =  0.00D+00  THRDIV  =  1.00D-05  THRRED  =  1.00D-07  THRPSP  =  1.00D+00  THRDC   =  1.00D-10  THRCS   =  1.00D-10
 THRNRM  =  1.00D-08  THREQ   =  0.00D+00  THRDE   =  1.00D+00  THRREF  =  1.00D-05  SPARFAC =  1.00D+00  THRDLP  =  1.00D-07
 THRDIA  =  1.00D-10  THRDLS  =  1.00D-07  THRGPS  =  0.00D+00  THRKEX  =  0.00D+00  THRDIS  =  2.00D-01  THRVAR  =  1.00D-10
 THRLOC  =  1.00D-06  THRGAP  =  1.00D-06  THRLOCT = -1.00D+00  THRGAPT = -1.00D+00  THRORB  =  1.00D-06  THRMLTP =  0.00D+00
 THRCPQCI=  1.00D-10  KEXTA   =  0.00D+00  THRCOARS=  0.00D+00  SYMTOL  =  1.00D-06  GRADTOL =  1.00D-06  THROVL  =  1.00D-08
 THRORTH =  1.00D-08  GRID    =  1.00D-06  GRIDMAX =  1.00D-03  DTMAX   =  0.00D+00  THROCCDE=  1.00D-01  THROCCDE=  1.00D-01



 Variable memory set to  500000000 words,  buffer space   230000 words

 ZSYMEL=NOSYM
 ZUNIT=ANG
 

Geometry recognized as XYZ

 SETTING BASIS          =    CC-PVTZ


 Recomputing integrals since basis changed


 Using spherical harmonics

 Library entry C      S cc-pVTZ              selected for orbital group  1
 Library entry C      P cc-pVTZ              selected for orbital group  1
 Library entry C      D cc-pVTZ              selected for orbital group  1
 Library entry C      F cc-pVTZ              selected for orbital group  1
 Library entry H      S cc-pVTZ              selected for orbital group  2
 Library entry H      P cc-pVTZ              selected for orbital group  2
 Library entry H      D cc-pVTZ              selected for orbital group  2

1PROGRAM * SEWARD (Integral evaluation for generally contracted gaussian basis sets)     Author: Roland Lindh, 1990

 Geometry written to block  1 of record 700


 Point group  C1  



 ATOMIC COORDINATES

 NR  ATOM    CHARGE       X              Y              Z

   1  C       6.00  -12.257693578    8.455176908   -2.676832892
   2  C       6.00   -9.386893831    8.455173821   -2.676830212
   3  H       1.00  -12.969308273    9.771226123   -4.148084582
   4  H       1.00  -12.969312152    9.071294215   -0.801476656
   5  H       1.00  -12.969312771    6.523012688   -3.080939432
   6  H       1.00   -8.675274647   10.387338030   -2.272723607
   7  H       1.00   -8.675275254    7.839056581   -4.552186470
   8  H       1.00   -8.675279129    7.139124559   -1.205578567

 Bond lengths in Bohr (Angstrom)

 1-2  2.870799746  1-3  2.098323746  1-4  2.098323746  1-5  2.098323747  2-6  2.098323746
     ( 1.519161803)     ( 1.110385108)     ( 1.110385108)     ( 1.110385108)     ( 1.110385108)

 2-7  2.098323747  2-8  2.098323747
     ( 1.110385108)     ( 1.110385108)

 Bond angles

  1-2-6  109.82425376   1-2-7  109.82425393   1-2-8  109.82425399   2-1-3  109.82425380

  2-1-4  109.82425385   2-1-5  109.82425402   3-1-4  109.11589189   3-1-5  109.11589189

  4-1-5  109.11589189   6-2-7  109.11589189   6-2-8  109.11589189   7-2-8  109.11589188

 NUCLEAR CHARGE:                   18
 NUMBER OF PRIMITIVE AOS:         196
 NUMBER OF SYMMETRY AOS:          180
 NUMBER OF CONTRACTIONS:          144   ( 144A   )
 NUMBER OF CORE ORBITALS:           2   (   2A   )
 NUMBER OF VALENCE ORBITALS:       14   (  14A   )


 NUCLEAR REPULSION ENERGY   42.03675744


 Eigenvalues of metric

         1 0.124E-02 0.135E-02 0.167E-02 0.179E-02 0.179E-02 0.181E-02 0.181E-02 0.338E-02


 Contracted 2-electron integrals neglected if value below      1.0D-12
 AO integral compression algorithm  1   Integral accuracy      1.0D-12

     284.951 MB (compressed) written to integral file ( 58.3%)

     Node minimum: 79.692 MB, node maximum: 108.003 MB


 NUMBER OF SORTED TWO-ELECTRON INTEGRALS:   18170820.     BUFFER LENGTH:  32768
 NUMBER OF SEGMENTS:   2  SEGMENT LENGTH:   15995235      RECORD LENGTH: 524288

 Memory used in sort:      16.55 MW

 SORT1 READ    61135278. AND WROTE    17916081. INTEGRALS IN     53 RECORDS. CPU TIME:     2.31 SEC, REAL TIME:     3.17 SEC
 SORT2 READ    53722152. AND WROTE    54502020. INTEGRALS IN    912 RECORDS. CPU TIME:     0.30 SEC, REAL TIME:     0.65 SEC

 Node minimum:    18163860.  Node maximum:    18170820. integrals

 OPERATOR DM      FOR CENTER  0  COORDINATES:    0.000000    0.000000    0.000000


 **********************************************************************************************************************************
 DATASETS  * FILE   NREC   LENGTH (MB)   RECORD NAMES
              1      18       19.97       500      610      700      900      950      970     1000      129      960     1100   
                                          VAR    BASINP    GEOM    SYMINP    ZMAT    AOBASIS   BASIS     P2S    ABASIS      S 
                                         1400     1410     1200     1210     1080     1600     1650     1700   
                                           T        V       H0       H01     AOSYM     SMH    MOLCAS    OPER   

 PROGRAMS   *        TOTAL       INT
 CPU TIMES  *         4.41      4.25
 REAL TIME  *         6.52 SEC
 DISK USED  *       942.00 MB      
 GA USED    *         0.00 MB       (max)       0.00 MB       (current)
 **********************************************************************************************************************************

1PROGRAM * RHF-SCF (CLOSED SHELL)       Authors: W. Meyer, H.-J. Werner


 NUMBER OF ELECTRONS:       9+    9-    SPACE SYMMETRY=1    SPIN SYMMETRY: Singlet 
 CONVERGENCE THRESHOLDS:    1.00E-06 (Density)    1.00E-09 (Energy)
 MAX. NUMBER OF ITERATIONS:       60
 INTERPOLATION TYPE:            DIIS
 INTERPOLATION STEPS:              2 (START)      1 (STEP)
 LEVEL SHIFTS:                  0.00 (CLOSED)  0.00 (OPEN) 



 Orbital guess generated from atomic densities. Full valence occupancy:   16

 Molecular orbital dump at record        2100.2

 Initial occupancy:   9

 ITERATION    DDIFF          GRAD             ENERGY        2-EL.EN.            DIPOLE MOMENTS         DIIS   ORB.
    1      0.000D+00      0.000D+00       -79.22619976    136.257513    0.00000    0.00000   -0.00000    0    start
    2      0.000D+00      0.397D-02       -79.25250289    134.103591    0.00000    0.00000   -0.00000    1    diag
    3      0.533D-02      0.160D-02       -79.25608767    135.008129    0.00000    0.00000   -0.00000    2    diag
    4      0.161D-02      0.479D-03       -79.25665438    134.822609    0.00000    0.00000   -0.00000    3    diag
    5      0.612D-03      0.595D-04       -79.25666583    134.823954    0.00000    0.00000   -0.00000    4    diag
    6      0.146D-03      0.664D-05       -79.25666598    134.823797    0.00000    0.00000   -0.00000    5    diag
    7      0.222D-04      0.689D-06       -79.25666598    134.823690    0.00000    0.00000   -0.00000    6    diag
    8      0.152D-05      0.114D-06       -79.25666598    134.823677    0.00000    0.00000   -0.00000    7    diag
    9      0.201D-06      0.157D-07       -79.25666598    134.823679    0.00000    0.00000   -0.00000    0    orth

 Final occupancy:   9

 !RHF STATE 1.1 Energy                -79.256665982560
 Nuclear energy                        42.03675744
 One-electron energy                 -188.70526299
 Two-electron energy                   67.41183957
 Virial quotient                       -1.00299087
 !RHF STATE 1.1 Dipole moment           0.00000000     0.00000000    -0.00000000
 Dipole moment /Debye                   0.00000000     0.00000000    -0.00000000

 Orbital energies:

         1.1          2.1          3.1          4.1          5.1          6.1          7.1          8.1          9.1         10.1
    -11.218029   -11.217403    -1.016742    -0.828441    -0.596327    -0.596327    -0.503146    -0.482188    -0.482188     0.139823

        11.1
      0.183630

 HOMO      9.1    -0.482188 =     -13.1210eV
 LUMO     10.1     0.139823 =       3.8048eV
 LUMO-HOMO         0.622012 =      16.9258eV


 **********************************************************************************************************************************
 DATASETS  * FILE   NREC   LENGTH (MB)   RECORD NAMES
              1      18       19.97       500      610      700      900      950      970     1000      129      960     1100   
                                          VAR    BASINP    GEOM    SYMINP    ZMAT    AOBASIS   BASIS     P2S    ABASIS      S 
                                         1400     1410     1200     1210     1080     1600     1650     1700   
                                           T        V       H0       H01     AOSYM     SMH    MOLCAS    OPER   

              2       4        0.92       700     1000      520     2100   
                                         GEOM     BASIS   MCVARS     RHF  

 PROGRAMS   *        TOTAL       RHF       INT
 CPU TIMES  *         8.21      3.79      4.25
 REAL TIME  *        10.94 SEC
 DISK USED  *         1.01 GB      
 SF USED    *         0.08 MB      
 GA USED    *         0.00 MB       (max)       0.00 MB       (current)
 **********************************************************************************************************************************


1PROGRAM * CCSD (Closed-shell coupled cluster)     Authors: C. Hampel, H.-J. Werner, 1991, M. Deegan, P.J. Knowles, 1992


 Convergence thresholds:  THRVAR = 1.00D-12  THRDEN = 1.00D-08

 CCSD(T)     terms to be evaluated (factor= 1.000)


 Number of core orbitals:           2 (   2 )
 Number of closed-shell orbitals:   7 (   7 )
 Number of external orbitals:     135 ( 135 )

 Molecular orbitals read from record     2100.2  Type=RHF/CANONICAL (state 1.1)

 Number of N-1 electron functions:               7
 Number of N-2 electron functions:              28
 Number of singly external CSFs:               945
 Number of doubly external CSFs:            446985
 Total number of CSFs:                      447931

 Length of J-op  integral file:               0.00 MB
 Length of K-op  integral file:               1.43 MB
 Length of 3-ext integral record:             0.00 MB

 Memory could be reduced to 25.00 Mwords without degradation in triples

 Integral transformation finished. Total CPU:   1.77 sec, npass=  1  Memory used:  13.46 MW

 Reference energy:                    -79.25666598

 MP2 singlet pair energy:              -0.25946659
 MP2 triplet pair energy:              -0.11134464
 MP2 correlation energy:               -0.37081123
 MP2 total energy:                    -79.62747721

 SCS-MP2 correlation energy:           -0.38064102   (PS=  1.200000  PT=  0.333333)
 SCS-MP2 total energy:                -79.63730700

 ITER.      SQ.NORM     CORR.ENERGY   TOTAL ENERGY   ENERGY CHANGE        DEN1      VAR(S)    VAR(P)  DIIS     TIME  TIME/IT
   1      1.13195203    -0.40005561   -79.65672160    -0.02924439    -0.01929457  0.95D-03  0.19D-02  1  1     2.69     1.13
   2      1.14193369    -0.40204973   -79.65871571    -0.00199411    -0.01007744  0.23D-04  0.17D-03  2  2     3.57     1.25
   3      1.14455563    -0.40214569   -79.65881167    -0.00009597    -0.00166686  0.26D-05  0.11D-04  3  3     4.38     1.19
   4      1.14518842    -0.40216666   -79.65883264    -0.00002097    -0.00027973  0.20D-06  0.55D-06  4  4     5.72     1.24
   5      1.14527375    -0.40216745   -79.65883343    -0.00000079    -0.00003242  0.22D-07  0.41D-07  5  5     6.91     1.27
   6      1.14528255    -0.40216614   -79.65883212     0.00000131    -0.00000373  0.25D-08  0.30D-08  6  6     7.70     1.29
   7      1.14528247    -0.40216602   -79.65883201     0.00000011     0.00000008  0.23D-09  0.25D-09  6  2     8.57     1.28
   8      1.14528281    -0.40216605   -79.65883203    -0.00000002    -0.00000020  0.29D-10  0.15D-10  6  1     9.90     1.31
   9      1.14528284    -0.40216603   -79.65883201     0.00000001    -0.00000003  0.34D-11  0.19D-11  6  3    10.75     1.32
  10      1.14528279    -0.40216603   -79.65883202    -0.00000000     0.00000006  0.40D-12  0.17D-12  6  4    11.66     1.32
  11      1.14528277    -0.40216603   -79.65883202    -0.00000000     0.00000002  0.26D-13  0.19D-13  6  5    12.96     1.33

 Norm of t1 vector:      0.04084416      S-energy:     0.00000000      T1 diagnostic:  0.00771882
                                                                       D1 diagnostic:  0.01306727


 Total CPU time for triples:      9.23 sec


 RESULTS
 =======

  Reference energy                    -79.256665982560
  CCSD singlet pair energy             -0.296559094729
  CCSD triplet pair energy             -0.105606943574
  CCSD correlation energy              -0.402166034730

  Triples (T) contribution             -0.013677403390
  Total correlation energy             -0.415843438120

  CCSD total energy                   -79.658832017289
  CCSD[T] energy                      -79.672865320044
  CCSD-T energy                       -79.672357895594
 !CCSD(T) total energy                -79.672509420680

 Timing summary (sec):

 STEP                 CPU(USER)    SYS     CPU(TOT)    WALL
 Transformation          1.79      0.18      1.97      2.71
 CCSD iterations        11.17      0.57     11.74     14.70
 Triples                 9.23      0.17      9.40     10.64

 Program statistics:

 Available memory in ccsd:               499999704
 Min. memory needed in ccsd:               1437889
 Max. memory used in ccsd:                 1802974
 Max. memory used in cckext:               1340122 (11 integral passes)



 **********************************************************************************************************************************
 DATASETS  * FILE   NREC   LENGTH (MB)   RECORD NAMES
              1      19       96.72       500      610      700      900      950      970     1000      129      960     1100   
                                          VAR    BASINP    GEOM    SYMINP    ZMAT    AOBASIS   BASIS     P2S    ABASIS      S 
                                         1400     1410     1200     1210     1080     1600     1650     1700     1380   
                                           T        V       H0       H01     AOSYM     SMH    MOLCAS    OPER     JKOP   

              2       4        0.92       700     1000      520     2100   
                                         GEOM     BASIS   MCVARS     RHF  

 PROGRAMS   *        TOTAL   CCSD(T)       RHF       INT
 CPU TIMES  *        30.43     22.23      3.79      4.25
 REAL TIME  *        39.06 SEC
 DISK USED  *         1.13 GB      
 SF USED    *       117.92 MB      
 GA USED    *         0.00 MB       (max)       0.00 MB       (current)
 **********************************************************************************************************************************


 PROGRAM * OPT (Geometry optimization)     Authors: F. Eckert and H.-J. Werner


 BFGS update of hessian

 Running default procedure: RHF-SCF000  CCSD(T)

 Geometry optimization using default procedure for command CCSD(T)

 Geometry written to block  1 of record 700
 

 Generated   6 symmetrical displacements

 Number of displacements for numerical gradient:     12

 Starting numerical gradient for CCSD(T)
 Starting task   1   Incrementing displacement  1 by  1.   CPU=    0.00 sec, Elapsed=    0.00 sec


 Recomputing integrals since geometry changed

1PROGRAM * SEWARD (Integral evaluation for generally contracted gaussian basis sets)     Author: Roland Lindh, 1990

 Geometry written to block  1 of record 700


 Point group  C1  



 ATOMIC COORDINATES

 NR  ATOM    CHARGE       X              Y              Z

   1  C       6.00  -12.257693576    8.457597015   -2.675418826
   2  C       6.00   -9.386893830    8.457593927   -2.675416146
   3  H       1.00  -12.970176907    9.769269355   -4.150100456
   4  H       1.00  -12.972570284    9.069724958   -0.800179768
   5  H       1.00  -12.965186007    6.524118607   -3.081634512
   6  H       1.00   -8.671147883   10.388443949   -2.273418687
   7  H       1.00   -8.678533386    7.837487325   -4.550889582
   8  H       1.00   -8.676147763    7.137167791   -1.207594441

 Bond lengths in Bohr (Angstrom)

 1-2  2.870799746  1-3  2.098285665  1-4  2.098158919  1-5  2.098546039  2-6  2.098112491
     ( 1.519161803)     ( 1.110364956)     ( 1.110297885)     ( 1.110502740)     ( 1.110273316)

 2-7  2.098501210  2-8  2.098376922
     ( 1.110479017)     ( 1.110413247)

 Bond angles

  1-2-6  109.94617433   1-2-7  109.72797503   1-2-8  109.79852062   2-1-3  109.84984382

  2-1-4  109.92048236   2-1-5  109.70234352   3-1-4  109.27283464   3-1-5  108.99153054

  4-1-5  109.08279055   6-2-7  109.14899669   6-2-8  109.23986059   7-2-8  108.95829878

 NUCLEAR CHARGE:                   18
 NUMBER OF PRIMITIVE AOS:         196
 NUMBER OF SYMMETRY AOS:          180
 NUMBER OF CONTRACTIONS:          144   ( 144A   )
 NUMBER OF CORE ORBITALS:           2   (   2A   )
 NUMBER OF VALENCE ORBITALS:       14   (  14A   )


 NUCLEAR REPULSION ENERGY   42.03670103

 Eigenvalues of metric

         1 0.124E-02 0.135E-02 0.167E-02 0.179E-02 0.179E-02 0.182E-02 0.182E-02 0.338E-02


 Contracted 2-electron integrals neglected if value below      1.0D-12
 AO integral compression algorithm  1   Integral accuracy      1.0D-12

     285.737 MB (compressed) written to integral file ( 58.5%)

     Node minimum: 89.653 MB, node maximum: 100.139 MB


 NUMBER OF SORTED TWO-ELECTRON INTEGRALS:   18170820.     BUFFER LENGTH:  32768
 NUMBER OF SEGMENTS:   2  SEGMENT LENGTH:   15995235      RECORD LENGTH: 524288

 Memory used in sort:      16.55 MW

 SORT1 READ    61135278. AND WROTE    17925184. INTEGRALS IN     53 RECORDS. CPU TIME:     1.03 SEC, REAL TIME:     1.20 SEC
 SORT2 READ    53751947. AND WROTE    54502020. INTEGRALS IN   1146 RECORDS. CPU TIME:     0.33 SEC, REAL TIME:     0.49 SEC

 Node minimum:    18163860.  Node maximum:    18170820. integrals

 OPERATOR DM      FOR CENTER  0  COORDINATES:    0.000000    0.000000    0.000000
1PROGRAM * RHF-SCF (CLOSED SHELL)       Authors: W. Meyer, H.-J. Werner


 NUMBER OF ELECTRONS:       9+    9-    SPACE SYMMETRY=1    SPIN SYMMETRY: Singlet 
 CONVERGENCE THRESHOLDS:    1.00E-07 (Density)    1.00E-09 (Energy)
 MAX. NUMBER OF ITERATIONS:       60
 INTERPOLATION TYPE:            DIIS
 INTERPOLATION STEPS:              2 (START)      1 (STEP)
 LEVEL SHIFTS:                  0.00 (CLOSED)  0.00 (OPEN) 

 Number of closed-shell orbitals:    9 (   9 )


 Molecular orbitals read from record     2100.2  Type=RHF/CANONICAL (state 1.1)

 Molecular orbital dump at record        2100.1

 ITERATION    DDIFF          GRAD             ENERGY        2-EL.EN.            DIPOLE MOMENTS         DIIS   ORB.
    1      0.000D+00      0.000D+00       -79.25665996    134.823614   -0.00000   -0.00121   -0.00071    0    start
    2      0.000D+00      0.398D-04       -79.25666212    134.823552    0.00000   -0.00096   -0.00056    1    diag
    3      0.501D-04      0.931D-05       -79.25666235    134.823583    0.00000   -0.00070   -0.00041    2    diag
    4      0.123D-04      0.203D-05       -79.25666236    134.823555    0.00000   -0.00060   -0.00035    3    diag
    5      0.310D-05      0.257D-06       -79.25666236    134.823582    0.00000   -0.00059   -0.00035    4    diag
    6      0.497D-06      0.354D-07       -79.25666236    134.823563    0.00000   -0.00059   -0.00035    5    diag
    7      0.643D-07      0.131D-07       -79.25666236    134.823572    0.00000   -0.00059   -0.00035    0    orth

 Final occupancy:   9

 !RHF STATE 1.1 Energy                -79.256662362120
 Nuclear energy                        42.03670103
 One-electron energy                 -188.70514948
 Two-electron energy                   67.41178609
 Virial quotient                       -1.00299115
 !RHF STATE 1.1 Dipole moment           0.00000000    -0.00059404    -0.00034710
 Dipole moment /Debye                   0.00000001    -0.00150980    -0.00088217

 Orbital energies:

         1.1          2.1          3.1          4.1          5.1          6.1          7.1          8.1          9.1         10.1
    -11.218031   -11.217405    -1.016742    -0.828439    -0.596328    -0.596326    -0.503146    -0.482186    -0.482185     0.139823

        11.1
      0.183629

 HOMO      9.1    -0.482185 =     -13.1209eV
 LUMO     10.1     0.139823 =       3.8048eV
 LUMO-HOMO         0.622008 =      16.9257eV


 **********************************************************************************************************************************
 DATASETS  * FILE   NREC   LENGTH (MB)   RECORD NAMES
              1      19       20.92       500      610      700      900      950      970     1000      129      960     1100   
                                          VAR    BASINP    GEOM    SYMINP    ZMAT    AOBASIS   BASIS     P2S    ABASIS      S 
                                         1400     1410     1200     1210     1080     1600     1650     1700     2100   
                                           T        V       H0       H01     AOSYM     SMH    MOLCAS    OPER      RHF  

              2       5        1.34       700     1000      520     2100     5600   
                                         GEOM     BASIS   MCVARS     RHF     GINFO   

 PROGRAMS   *        TOTAL       RHF   CCSD(T)       RHF       INT
 CPU TIMES  *        34.75      3.96     22.23      3.79      4.25
 REAL TIME  *        45.49 SEC
 DISK USED  *         1.29 GB      
 SF USED    *       117.92 MB      
 GA USED    *         0.00 MB       (max)       0.00 MB       (current)
 **********************************************************************************************************************************


1PROGRAM * CCSD (Closed-shell coupled cluster)     Authors: C. Hampel, H.-J. Werner, 1991, M. Deegan, P.J. Knowles, 1992


 Convergence thresholds:  THRVAR = 1.00D-12  THRDEN = 1.00D-08

 CCSD(T)     terms to be evaluated (factor= 1.000)


 Number of core orbitals:           2 (   2 )
 Number of closed-shell orbitals:   7 (   7 )
 Number of external orbitals:     135 ( 135 )

 Molecular orbitals read from record     2100.1  Type=RHF/CANONICAL (state 1.1)

 Number of N-1 electron functions:               7
 Number of N-2 electron functions:              28
 Number of singly external CSFs:               945
 Number of doubly external CSFs:            446985
 Total number of CSFs:                      447931

 Length of J-op  integral file:               0.00 MB
 Length of K-op  integral file:               1.43 MB
 Length of 3-ext integral record:             0.00 MB

 Memory could be reduced to 25.00 Mwords without degradation in triples

 Integral transformation finished. Total CPU:   1.47 sec, npass=  1  Memory used:  13.46 MW

 Reference energy:                    -79.25666236

 MP2 singlet pair energy:              -0.25946690
 MP2 triplet pair energy:              -0.11134483
 MP2 correlation energy:               -0.37081173
 MP2 total energy:                    -79.62747410

 SCS-MP2 correlation energy:           -0.38064151   (PS=  1.200000  PT=  0.333333)
 SCS-MP2 total energy:                -79.63730387

 ITER.      SQ.NORM     CORR.ENERGY   TOTAL ENERGY   ENERGY CHANGE        DEN1      VAR(S)    VAR(P)  DIIS     TIME  TIME/IT
   1      1.13195264    -0.40005611   -79.65671847    -0.02924438    -0.01929450  0.95D-03  0.19D-02  1  1     2.16     0.74
   2      1.14193440    -0.40205024   -79.65871261    -0.00199413    -0.01007749  0.23D-04  0.17D-03  2  2     2.92     0.78
   3      1.14455640    -0.40214621   -79.65880858    -0.00009597    -0.00166688  0.26D-05  0.11D-04  3  3     3.78     0.82
   4      1.14518920    -0.40216718   -79.65882955    -0.00002097    -0.00027974  0.20D-06  0.55D-06  4  4     4.68     0.85
   5      1.14527453    -0.40216797   -79.65883034    -0.00000079    -0.00003242  0.22D-07  0.41D-07  5  5     5.59     0.88
   6      1.14528333    -0.40216666   -79.65882902     0.00000131    -0.00000373  0.25D-08  0.30D-08  6  6     6.36     0.87
   7      1.14528325    -0.40216655   -79.65882891     0.00000011     0.00000008  0.23D-09  0.25D-09  6  2     7.15     0.86
   8      1.14528359    -0.40216657   -79.65882893    -0.00000002    -0.00000020  0.29D-10  0.15D-10  6  1     7.93     0.86
   9      1.14528362    -0.40216655   -79.65882892     0.00000001    -0.00000003  0.34D-11  0.19D-11  6  3     8.71     0.87
  10      1.14528358    -0.40216656   -79.65882892    -0.00000000     0.00000006  0.40D-12  0.17D-12  6  4     9.49     0.87
  11      1.14528355    -0.40216656   -79.65882892    -0.00000000     0.00000002  0.26D-13  0.19D-13  6  5    10.31     0.87

 Norm of t1 vector:      0.04084434      S-energy:     0.00000001      T1 diagnostic:  0.00771886
                                                                       D1 diagnostic:  0.01306767

 Total CPU time for triples:      9.59 sec


 RESULTS
 =======

  Reference energy                    -79.256662362120
  CCSD singlet pair energy             -0.296559523282
  CCSD triplet pair energy             -0.105607040471
  CCSD correlation energy              -0.402166557573

  Triples (T) contribution             -0.013677485084
  Total correlation energy             -0.415844042656

  CCSD total energy                   -79.658828919693
  CCSD[T] energy                      -79.672862308079
  CCSD-T energy                       -79.672354877844
 !CCSD(T) total energy                -79.672506404776

 Timing summary (sec):

 STEP                 CPU(USER)    SYS     CPU(TOT)    WALL
 Transformation          1.48      0.17      1.65      1.67
 CCSD iterations         8.84      0.55      9.39      9.56
 Triples                 9.59      0.18      9.77      9.77

 Program statistics:

 Available memory in ccsd:               499998072
 Min. memory needed in ccsd:               1437889
 Max. memory used in ccsd:                 1802974
 Max. memory used in cckext:               1340122 (11 integral passes)



 **********************************************************************************************************************************
 DATASETS  * FILE   NREC   LENGTH (MB)   RECORD NAMES
              1      20       97.67       500      610      700      900      950      970     1000      129      960     1100   
                                          VAR    BASINP    GEOM    SYMINP    ZMAT    AOBASIS   BASIS     P2S    ABASIS      S 
                                         1400     1410     1200     1210     1080     1600     1650     1700     2100     1380   
                                           T        V       H0       H01     AOSYM     SMH    MOLCAS    OPER      RHF     JKOP   

              2       5        1.34       700     1000      520     2100     5600   
                                         GEOM     BASIS   MCVARS     RHF     GINFO   

 PROGRAMS   *        TOTAL   CCSD(T)   CCSD(T)       RHF       INT
 CPU TIMES  *        54.69     19.94     22.23      3.79      4.25
 REAL TIME  *        66.56 SEC
 DISK USED  *         1.29 GB      
 SF USED    *       117.92 MB      
 GA USED    *         0.00 MB       (max)       0.00 MB       (current)
 **********************************************************************************************************************************
 Starting task   2   Incrementing displacement  1 by -1.   CPU=   25.46 sec, Elapsed=   26.61 sec


 Recomputing integrals since geometry changed

1PROGRAM * SEWARD (Integral evaluation for generally contracted gaussian basis sets)     Author: Roland Lindh, 1990

 Geometry written to block  1 of record 700


 Point group  C1  



 ATOMIC COORDINATES

 NR  ATOM    CHARGE       X              Y              Z

   1  C       6.00  -12.257693579    8.452756802   -2.678246959
   2  C       6.00   -9.386893833    8.452753714   -2.678244279
   3  H       1.00  -12.968439640    9.773182891   -4.146068708
   4  H       1.00  -12.966054021    9.072863472   -0.802773544
   5  H       1.00  -12.973439535    6.521906769   -3.080244353
   6  H       1.00   -8.679401412   10.386232111   -2.272028526
   7  H       1.00   -8.672017122    7.840625838   -4.553483357
   8  H       1.00   -8.674410495    7.141081328   -1.203562693

 Bond lengths in Bohr (Angstrom)

 1-2  2.870799746  1-3  2.098376922  1-4  2.098501210  1-5  2.098112492  2-6  2.098546038
     ( 1.519161803)     ( 1.110413247)     ( 1.110479017)     ( 1.110273316)     ( 1.110502740)

 2-7  2.098158919  2-8  2.098285666
     ( 1.110297885)     ( 1.110364956)

 Bond angles

  1-2-6  109.70234326   1-2-7  109.92048243   1-2-8  109.84984402   2-1-3  109.79852045

  2-1-4  109.72797495   2-1-5  109.94617458   3-1-4  108.95829876   3-1-5  109.23986057

  4-1-5  109.14899673   6-2-7  109.08279060   6-2-8  108.99153052   7-2-8  109.27283459

 NUCLEAR CHARGE:                   18
 NUMBER OF PRIMITIVE AOS:         196
 NUMBER OF SYMMETRY AOS:          180
 NUMBER OF CONTRACTIONS:          144   ( 144A   )
 NUMBER OF CORE ORBITALS:           2   (   2A   )
 NUMBER OF VALENCE ORBITALS:       14   (  14A   )


 NUCLEAR REPULSION ENERGY   42.03670103

 Eigenvalues of metric

         1 0.124E-02 0.135E-02 0.167E-02 0.179E-02 0.179E-02 0.182E-02 0.182E-02 0.338E-02


 Contracted 2-electron integrals neglected if value below      1.0D-12
 AO integral compression algorithm  1   Integral accuracy      1.0D-12

     285.737 MB (compressed) written to integral file ( 58.5%)

     Node minimum: 93.323 MB, node maximum: 97.255 MB


 NUMBER OF SORTED TWO-ELECTRON INTEGRALS:   18170820.     BUFFER LENGTH:  32768
 NUMBER OF SEGMENTS:   2  SEGMENT LENGTH:   15995235      RECORD LENGTH: 524288

 Memory used in sort:      16.55 MW

 SORT1 READ    61135278. AND WROTE    17925180. INTEGRALS IN     53 RECORDS. CPU TIME:     1.04 SEC, REAL TIME:     1.21 SEC
 SORT2 READ    53751948. AND WROTE    54502020. INTEGRALS IN   1089 RECORDS. CPU TIME:     0.32 SEC, REAL TIME:     0.47 SEC

 Node minimum:    18163860.  Node maximum:    18170820. integrals

 OPERATOR DM      FOR CENTER  0  COORDINATES:    0.000000    0.000000    0.000000
1PROGRAM * RHF-SCF (CLOSED SHELL)       Authors: W. Meyer, H.-J. Werner


 NUMBER OF ELECTRONS:       9+    9-    SPACE SYMMETRY=1    SPIN SYMMETRY: Singlet 
 CONVERGENCE THRESHOLDS:    1.00E-07 (Density)    1.00E-09 (Energy)
 MAX. NUMBER OF ITERATIONS:       60
 INTERPOLATION TYPE:            DIIS
 INTERPOLATION STEPS:              2 (START)      1 (STEP)
 LEVEL SHIFTS:                  0.00 (CLOSED)  0.00 (OPEN) 

 Number of closed-shell orbitals:    9 (   9 )


 Molecular orbitals read from record     2100.2  Type=RHF/CANONICAL (state 1.1)

 Molecular orbital dump at record        2100.1

 ITERATION    DDIFF          GRAD             ENERGY        2-EL.EN.            DIPOLE MOMENTS         DIIS   ORB.
    1      0.000D+00      0.000D+00       -79.25665996    134.823614    0.00000    0.00121    0.00071    0    start
    2      0.000D+00      0.398D-04       -79.25666212    134.823552   -0.00000    0.00096    0.00056    1    diag
    3      0.501D-04      0.931D-05       -79.25666235    134.823583   -0.00000    0.00070    0.00041    2    diag
    4      0.123D-04      0.203D-05       -79.25666236    134.823555   -0.00000    0.00060    0.00035    3    diag
    5      0.310D-05      0.257D-06       -79.25666236    134.823582   -0.00000    0.00059    0.00035    4    diag
    6      0.497D-06      0.354D-07       -79.25666236    134.823563   -0.00000    0.00059    0.00035    5    diag
    7      0.643D-07      0.131D-07       -79.25666236    134.823572   -0.00000    0.00059    0.00035    0    orth

 Final occupancy:   9

 !RHF STATE 1.1 Energy                -79.256662362126
 Nuclear energy                        42.03670103
 One-electron energy                 -188.70514948
 Two-electron energy                   67.41178609
 Virial quotient                       -1.00299115
 !RHF STATE 1.1 Dipole moment          -0.00000000     0.00059404     0.00034710
 Dipole moment /Debye                  -0.00000001     0.00150980     0.00088217

 Orbital energies:

         1.1          2.1          3.1          4.1          5.1          6.1          7.1          8.1          9.1         10.1
    -11.218031   -11.217405    -1.016742    -0.828439    -0.596328    -0.596326    -0.503146    -0.482186    -0.482185     0.139823

        11.1
      0.183629

 HOMO      9.1    -0.482185 =     -13.1209eV
 LUMO     10.1     0.139823 =       3.8048eV
 LUMO-HOMO         0.622008 =      16.9257eV


 **********************************************************************************************************************************
 DATASETS  * FILE   NREC   LENGTH (MB)   RECORD NAMES
              1      19       20.92       500      610      700      900      950      970     1000      129      960     1100   
                                          VAR    BASINP    GEOM    SYMINP    ZMAT    AOBASIS   BASIS     P2S    ABASIS      S 
                                         1400     1410     1200     1210     1080     1600     1650     1700     2100   
                                           T        V       H0       H01     AOSYM     SMH    MOLCAS    OPER      RHF  

              2       5        1.34       700     1000      520     2100     5600   
                                         GEOM     BASIS   MCVARS     RHF     GINFO   

 PROGRAMS   *        TOTAL       RHF   CCSD(T)       RHF       INT
 CPU TIMES  *        58.65      3.96     22.23      3.79      4.25
 REAL TIME  *        71.11 SEC
 DISK USED  *         1.29 GB      
 SF USED    *       117.92 MB      
 GA USED    *         0.00 MB       (max)       0.00 MB       (current)
 **********************************************************************************************************************************


1PROGRAM * CCSD (Closed-shell coupled cluster)     Authors: C. Hampel, H.-J. Werner, 1991, M. Deegan, P.J. Knowles, 1992


 Convergence thresholds:  THRVAR = 1.00D-12  THRDEN = 1.00D-08

 CCSD(T)     terms to be evaluated (factor= 1.000)


 Number of core orbitals:           2 (   2 )
 Number of closed-shell orbitals:   7 (   7 )
 Number of external orbitals:     135 ( 135 )

 Molecular orbitals read from record     2100.1  Type=RHF/CANONICAL (state 1.1)

 Number of N-1 electron functions:               7
 Number of N-2 electron functions:              28
 Number of singly external CSFs:               945
 Number of doubly external CSFs:            446985
 Total number of CSFs:                      447931

 Length of J-op  integral file:               0.00 MB
 Length of K-op  integral file:               1.43 MB
 Length of 3-ext integral record:             0.00 MB

 Memory could be reduced to 25.00 Mwords without degradation in triples

 Integral transformation finished. Total CPU:   1.35 sec, npass=  1  Memory used:  13.46 MW

 Reference energy:                    -79.25666236

 MP2 singlet pair energy:              -0.25946690
 MP2 triplet pair energy:              -0.11134483
 MP2 correlation energy:               -0.37081173
 MP2 total energy:                    -79.62747410

 SCS-MP2 correlation energy:           -0.38064151   (PS=  1.200000  PT=  0.333333)
 SCS-MP2 total energy:                -79.63730387

 ITER.      SQ.NORM     CORR.ENERGY   TOTAL ENERGY   ENERGY CHANGE        DEN1      VAR(S)    VAR(P)  DIIS     TIME  TIME/IT
   1      1.13195264    -0.40005611   -79.65671847    -0.02924438    -0.01929450  0.95D-03  0.19D-02  1  1     2.08     0.75
   2      1.14193440    -0.40205024   -79.65871261    -0.00199413    -0.01007749  0.23D-04  0.17D-03  2  2     2.89     0.80
   3      1.14455640    -0.40214621   -79.65880858    -0.00009597    -0.00166688  0.26D-05  0.11D-04  3  3     3.64     0.81
   4      1.14518920    -0.40216718   -79.65882955    -0.00002097    -0.00027974  0.20D-06  0.55D-06  4  4     4.41     0.81
   5      1.14527453    -0.40216797   -79.65883034    -0.00000079    -0.00003242  0.22D-07  0.41D-07  5  5     5.20     0.82
   6      1.14528333    -0.40216666   -79.65882902     0.00000131    -0.00000373  0.25D-08  0.30D-08  6  6     5.95     0.82
   7      1.14528325    -0.40216655   -79.65882891     0.00000011     0.00000008  0.23D-09  0.25D-09  6  2     6.68     0.82
   8      1.14528359    -0.40216657   -79.65882893    -0.00000002    -0.00000020  0.29D-10  0.15D-10  6  1     7.42     0.83
   9      1.14528362    -0.40216655   -79.65882892     0.00000001    -0.00000003  0.34D-11  0.19D-11  6  3     8.15     0.83
  10      1.14528358    -0.40216656   -79.65882892    -0.00000000     0.00000006  0.40D-12  0.17D-12  6  4     8.90     0.83
  11      1.14528355    -0.40216656   -79.65882892    -0.00000000     0.00000002  0.26D-13  0.19D-13  6  5     9.65     0.83

 Norm of t1 vector:      0.04084434      S-energy:     0.00000001      T1 diagnostic:  0.00771886
                                                                       D1 diagnostic:  0.01306767

 Total CPU time for triples:      9.79 sec


 RESULTS
 =======

  Reference energy                    -79.256662362126
  CCSD singlet pair energy             -0.296559523282
  CCSD triplet pair energy             -0.105607040471
  CCSD correlation energy              -0.402166557572

  Triples (T) contribution             -0.013677485084
  Total correlation energy             -0.415844042656

  CCSD total energy                   -79.658828919699
  CCSD[T] energy                      -79.672862308085
  CCSD-T energy                       -79.672354877850
 !CCSD(T) total energy                -79.672506404782

 Timing summary (sec):

 STEP                 CPU(USER)    SYS     CPU(TOT)    WALL
 Transformation          1.37      0.23      1.60      1.59
 CCSD iterations         8.28      0.54      8.82      9.17
 Triples                 9.80      0.19      9.99      9.97

 Program statistics:

 Available memory in ccsd:               499998072
 Min. memory needed in ccsd:               1437889
 Max. memory used in ccsd:                 1802974
 Max. memory used in cckext:               1340122 (11 integral passes)



 **********************************************************************************************************************************
 DATASETS  * FILE   NREC   LENGTH (MB)   RECORD NAMES
              1      20       97.67       500      610      700      900      950      970     1000      129      960     1100   
                                          VAR    BASINP    GEOM    SYMINP    ZMAT    AOBASIS   BASIS     P2S    ABASIS      S 
                                         1400     1410     1200     1210     1080     1600     1650     1700     2100     1380   
                                           T        V       H0       H01     AOSYM     SMH    MOLCAS    OPER      RHF     JKOP   

              2       5        1.34       700     1000      520     2100     5600   
                                         GEOM     BASIS   MCVARS     RHF     GINFO   

 PROGRAMS   *        TOTAL   CCSD(T)   CCSD(T)       RHF       INT
 CPU TIMES  *        78.13     19.46     22.23      3.79      4.25
 REAL TIME  *        91.91 SEC
 DISK USED  *         1.29 GB      
 SF USED    *       117.92 MB      
 GA USED    *         0.00 MB       (max)       0.00 MB       (current)
 **********************************************************************************************************************************
 Starting task   3   Incrementing displacement  2 by  1.   CPU=   50.48 sec, Elapsed=   51.97 sec


 Recomputing integrals since geometry changed

1PROGRAM * SEWARD (Integral evaluation for generally contracted gaussian basis sets)     Author: Roland Lindh, 1990

 Geometry written to block  1 of record 700


 Point group  C1  



 ATOMIC COORDINATES

 NR  ATOM    CHARGE       X              Y              Z

   1  C       6.00  -12.257768056    8.455176908   -2.676832892
   2  C       6.00   -9.386819353    8.455173821   -2.676830212
   3  H       1.00  -12.965492350    9.772193080   -4.149165574
   4  H       1.00  -12.965496232    9.071746900   -0.800098741
   5  H       1.00  -12.965496851    6.521593033   -3.081236344
   6  H       1.00   -8.679090567   10.388757685   -2.272426695
   7  H       1.00   -8.679091174    7.838603896   -4.553564384
   8  H       1.00   -8.679095052    7.138157602   -1.204497575

 Bond lengths in Bohr (Angstrom)

 1-2  2.870948703  1-3  2.098372893  1-4  2.098372893  1-5  2.098372894  2-6  2.098372893
     ( 1.519240627)     ( 1.110411115)     ( 1.110411115)     ( 1.110411115)     ( 1.110411115)

 2-7  2.098372894  2-8  2.098372893
     ( 1.110411115)     ( 1.110411115)

 Bond angles

  1-2-6  109.71089166   1-2-7  109.71089184   1-2-8  109.71089190   2-1-3  109.71089170

  2-1-4  109.71089176   2-1-5  109.71089193   3-1-4  109.23048977   3-1-5  109.23048977

  4-1-5  109.23048976   6-2-7  109.23048977   6-2-8  109.23048976   7-2-8  109.23048976

 NUCLEAR CHARGE:                   18
 NUMBER OF PRIMITIVE AOS:         196
 NUMBER OF SYMMETRY AOS:          180
 NUMBER OF CONTRACTIONS:          144   ( 144A   )
 NUMBER OF CORE ORBITALS:           2   (   2A   )
 NUMBER OF VALENCE ORBITALS:       14   (  14A   )


 NUCLEAR REPULSION ENERGY   42.04198637


 Eigenvalues of metric

         1 0.124E-02 0.135E-02 0.167E-02 0.180E-02 0.180E-02 0.182E-02 0.182E-02 0.338E-02


 Contracted 2-electron integrals neglected if value below      1.0D-12
 AO integral compression algorithm  1   Integral accuracy      1.0D-12

     284.951 MB (compressed) written to integral file ( 58.3%)

     Node minimum: 92.275 MB, node maximum: 97.518 MB


 NUMBER OF SORTED TWO-ELECTRON INTEGRALS:   18170820.     BUFFER LENGTH:  32768
 NUMBER OF SEGMENTS:   2  SEGMENT LENGTH:   15995235      RECORD LENGTH: 524288

 Memory used in sort:      16.55 MW

 SORT1 READ    61135278. AND WROTE    17916693. INTEGRALS IN     53 RECORDS. CPU TIME:     1.07 SEC, REAL TIME:     1.23 SEC
 SORT2 READ    53724120. AND WROTE    54502020. INTEGRALS IN   1056 RECORDS. CPU TIME:     0.35 SEC, REAL TIME:     0.51 SEC

 Node minimum:    18163860.  Node maximum:    18170820. integrals

 OPERATOR DM      FOR CENTER  0  COORDINATES:    0.000000    0.000000    0.000000
1PROGRAM * RHF-SCF (CLOSED SHELL)       Authors: W. Meyer, H.-J. Werner


 NUMBER OF ELECTRONS:       9+    9-    SPACE SYMMETRY=1    SPIN SYMMETRY: Singlet 
 CONVERGENCE THRESHOLDS:    1.00E-07 (Density)    1.00E-09 (Energy)
 MAX. NUMBER OF ITERATIONS:       60
 INTERPOLATION TYPE:            DIIS
 INTERPOLATION STEPS:              2 (START)      1 (STEP)
 LEVEL SHIFTS:                  0.00 (CLOSED)  0.00 (OPEN) 

 Number of closed-shell orbitals:    9 (   9 )


 Molecular orbitals read from record     2100.2  Type=RHF/CANONICAL (state 1.1)

 Molecular orbital dump at record        2100.1

 ITERATION    DDIFF          GRAD             ENERGY        2-EL.EN.            DIPOLE MOMENTS         DIIS   ORB.
    1      0.000D+00      0.000D+00       -79.25654715    134.836069    0.00000    0.00000   -0.00000    0    start
    2      0.000D+00      0.297D-04       -79.25654808    134.834146   -0.00000    0.00000   -0.00000    1    diag
    3      0.386D-04      0.515D-05       -79.25654814    134.835103   -0.00000    0.00000   -0.00000    2    diag
    4      0.711D-05      0.106D-05       -79.25654814    134.834562   -0.00000    0.00000   -0.00000    3    diag
    5      0.148D-05      0.392D-06       -79.25654814    134.834763   -0.00000    0.00000   -0.00000    4    diag
    6      0.509D-06      0.545D-07       -79.25654814    134.834754   -0.00000    0.00000   -0.00000    5    diag
    7      0.108D-06      0.884D-08       -79.25654814    134.834755   -0.00000    0.00000   -0.00000    6    diag
    8      0.165D-07      0.149D-08       -79.25654814    134.834755   -0.00000    0.00000   -0.00000    0    orth

 Final occupancy:   9

 !RHF STATE 1.1 Energy                -79.256548139154
 Nuclear energy                        42.04198637
 One-electron energy                 -188.71591190
 Two-electron energy                   67.41737739
 Virial quotient                       -1.00298547
 !RHF STATE 1.1 Dipole moment          -0.00000000     0.00000000    -0.00000000
 Dipole moment /Debye                  -0.00000000     0.00000000    -0.00000000

 Orbital energies:

         1.1          2.1          3.1          4.1          5.1          6.1          7.1          8.1          9.1         10.1
    -11.217982   -11.217356    -1.016856    -0.828096    -0.596616    -0.596616    -0.502485    -0.482286    -0.482286     0.139788

        11.1
      0.183813

 HOMO      9.1    -0.482286 =     -13.1237eV
 LUMO     10.1     0.139788 =       3.8038eV
 LUMO-HOMO         0.622074 =      16.9275eV


 **********************************************************************************************************************************
 DATASETS  * FILE   NREC   LENGTH (MB)   RECORD NAMES
              1      19       20.92       500      610      700      900      950      970     1000      129      960     1100   
                                          VAR    BASINP    GEOM    SYMINP    ZMAT    AOBASIS   BASIS     P2S    ABASIS      S 
                                         1400     1410     1200     1210     1080     1600     1650     1700     2100   
                                           T        V       H0       H01     AOSYM     SMH    MOLCAS    OPER      RHF  

              2       5        1.34       700     1000      520     2100     5600   
                                         GEOM     BASIS   MCVARS     RHF     GINFO   

 PROGRAMS   *        TOTAL       RHF   CCSD(T)       RHF       INT
 CPU TIMES  *        82.32      4.20     22.23      3.79      4.25
 REAL TIME  *        96.77 SEC
 DISK USED  *         1.29 GB      
 SF USED    *       117.92 MB      
 GA USED    *         0.00 MB       (max)       0.00 MB       (current)
 **********************************************************************************************************************************


1PROGRAM * CCSD (Closed-shell coupled cluster)     Authors: C. Hampel, H.-J. Werner, 1991, M. Deegan, P.J. Knowles, 1992


 Convergence thresholds:  THRVAR = 1.00D-12  THRDEN = 1.00D-08

 CCSD(T)     terms to be evaluated (factor= 1.000)


 Number of core orbitals:           2 (   2 )
 Number of closed-shell orbitals:   7 (   7 )
 Number of external orbitals:     135 ( 135 )

 Molecular orbitals read from record     2100.1  Type=RHF/CANONICAL (state 1.1)

 Number of N-1 electron functions:               7
 Number of N-2 electron functions:              28
 Number of singly external CSFs:               945
 Number of doubly external CSFs:            446985
 Total number of CSFs:                      447931

 Length of J-op  integral file:               0.00 MB
 Length of K-op  integral file:               1.43 MB
 Length of 3-ext integral record:             0.00 MB

 Memory could be reduced to 25.00 Mwords without degradation in triples

 Integral transformation finished. Total CPU:   1.52 sec, npass=  1  Memory used:  13.46 MW

 Reference energy:                    -79.25654814

 MP2 singlet pair energy:              -0.25947658
 MP2 triplet pair energy:              -0.11134919
 MP2 correlation energy:               -0.37082577
 MP2 total energy:                    -79.62737391

 SCS-MP2 correlation energy:           -0.38065584   (PS=  1.200000  PT=  0.333333)
 SCS-MP2 total energy:                -79.63720398

 ITER.      SQ.NORM     CORR.ENERGY   TOTAL ENERGY   ENERGY CHANGE        DEN1      VAR(S)    VAR(P)  DIIS     TIME  TIME/IT
   1      1.13195784    -0.40006819   -79.65661633    -0.02924242    -0.01929197  0.95D-03  0.19D-02  1  1     2.24     0.81
   2      1.14194070    -0.40206302   -79.65861116    -0.00199483    -0.01007832  0.23D-04  0.17D-03  2  2     3.03     0.83
   3      1.14456313    -0.40215890   -79.65870704    -0.00009588    -0.00166725  0.26D-05  0.11D-04  3  3     3.86     0.85
   4      1.14519593    -0.40217989   -79.65872803    -0.00002100    -0.00027973  0.20D-06  0.55D-06  4  4     4.61     0.84
   5      1.14528129    -0.40218068   -79.65872882    -0.00000079    -0.00003243  0.22D-07  0.41D-07  5  5     5.35     0.83
   6      1.14529008    -0.40217937   -79.65872751     0.00000131    -0.00000373  0.25D-08  0.30D-08  6  6     6.09     0.83
   7      1.14529001    -0.40217926   -79.65872739     0.00000011     0.00000008  0.23D-09  0.25D-09  6  2     6.85     0.83
   8      1.14529035    -0.40217928   -79.65872742    -0.00000002    -0.00000020  0.30D-10  0.15D-10  6  1     7.59     0.83
   9      1.14529038    -0.40217926   -79.65872740     0.00000001    -0.00000003  0.35D-11  0.19D-11  6  3     8.32     0.82
  10      1.14529034    -0.40217927   -79.65872740    -0.00000000     0.00000006  0.41D-12  0.18D-12  6  4     9.09     0.83
  11      1.14529031    -0.40217927   -79.65872741    -0.00000000     0.00000002  0.27D-13  0.20D-13  6  5     9.87     0.83

 Norm of t1 vector:      0.04084077      S-energy:     0.00000000      T1 diagnostic:  0.00771818
                                                                       D1 diagnostic:  0.01305787

 Total CPU time for triples:      9.30 sec


 RESULTS
 =======

  Reference energy                    -79.256548139154
  CCSD singlet pair energy             -0.296571060550
  CCSD triplet pair energy             -0.105608206391
  CCSD correlation energy              -0.402179266082

  Triples (T) contribution             -0.013679144390
  Total correlation energy             -0.415858410472

  CCSD total energy                   -79.658727405236
  CCSD[T] energy                      -79.672762324936
  CCSD-T energy                       -79.672255042277
 !CCSD(T) total energy                -79.672406549626

 Timing summary (sec):

 STEP                 CPU(USER)    SYS     CPU(TOT)    WALL
 Transformation          1.53      0.16      1.69      1.70
 CCSD iterations         8.34      0.59      8.93      9.13
 Triples                 9.30      0.18      9.48      9.47

 Program statistics:

 Available memory in ccsd:               499998072
 Min. memory needed in ccsd:               1437889
 Max. memory used in ccsd:                 1802974
 Max. memory used in cckext:               1340122 (11 integral passes)



 **********************************************************************************************************************************
 DATASETS  * FILE   NREC   LENGTH (MB)   RECORD NAMES
              1      20       97.67       500      610      700      900      950      970     1000      129      960     1100   
                                          VAR    BASINP    GEOM    SYMINP    ZMAT    AOBASIS   BASIS     P2S    ABASIS      S 
                                         1400     1410     1200     1210     1080     1600     1650     1700     2100     1380   
                                           T        V       H0       H01     AOSYM     SMH    MOLCAS    OPER      RHF     JKOP   

              2       5        1.34       700     1000      520     2100     5600   
                                         GEOM     BASIS   MCVARS     RHF     GINFO   

 PROGRAMS   *        TOTAL   CCSD(T)   CCSD(T)       RHF       INT
 CPU TIMES  *       101.51     19.19     22.23      3.79      4.25
 REAL TIME  *       117.13 SEC
 DISK USED  *         1.29 GB      
 SF USED    *       117.92 MB      
 GA USED    *         0.00 MB       (max)       0.00 MB       (current)
 **********************************************************************************************************************************
 Starting task   4   Incrementing displacement  2 by -1.   CPU=   75.42 sec, Elapsed=   77.18 sec


 Recomputing integrals since geometry changed

1PROGRAM * SEWARD (Integral evaluation for generally contracted gaussian basis sets)     Author: Roland Lindh, 1990

 Geometry written to block  1 of record 700


 Point group  C1  



 ATOMIC COORDINATES

 NR  ATOM    CHARGE       X              Y              Z

   1  C       6.00  -12.257619099    8.455176908   -2.676832892
   2  C       6.00   -9.386968310    8.455173821   -2.676830212
   3  H       1.00  -12.973124196    9.770259166   -4.147003590
   4  H       1.00  -12.973128073    9.070841530   -0.802854570
   5  H       1.00  -12.973128690    6.524432342   -3.080642521
   6  H       1.00   -8.671458728   10.385918376   -2.273020518
   7  H       1.00   -8.671459334    7.839509266   -4.550808555
   8  H       1.00   -8.671463206    7.140091516   -1.206659559

 Bond lengths in Bohr (Angstrom)

 1-2  2.870650790  1-3  2.098282814  1-4  2.098282814  1-5  2.098282814  2-6  2.098282814
     ( 1.519082978)     ( 1.110363447)     ( 1.110363447)     ( 1.110363447)     ( 1.110363447)

 2-7  2.098282814  2-8  2.098282814
     ( 1.110363447)     ( 1.110363447)

 Bond angles

  1-2-6  109.93762072   1-2-7  109.93762089   1-2-8  109.93762094   2-1-3  109.93762076

  2-1-4  109.93762081   2-1-5  109.93762097   3-1-4  109.00082050   3-1-5  109.00082050

  4-1-5  109.00082049   6-2-7  109.00082050   6-2-8  109.00082050   7-2-8  109.00082049

 NUCLEAR CHARGE:                   18
 NUMBER OF PRIMITIVE AOS:         196
 NUMBER OF SYMMETRY AOS:          180
 NUMBER OF CONTRACTIONS:          144   ( 144A   )
 NUMBER OF CORE ORBITALS:           2   (   2A   )
 NUMBER OF VALENCE ORBITALS:       14   (  14A   )


 NUCLEAR REPULSION ENERGY   42.03146833


 Eigenvalues of metric

         1 0.124E-02 0.135E-02 0.168E-02 0.179E-02 0.179E-02 0.181E-02 0.181E-02 0.338E-02


 Contracted 2-electron integrals neglected if value below      1.0D-12
 AO integral compression algorithm  1   Integral accuracy      1.0D-12

     284.688 MB (compressed) written to integral file ( 58.3%)

     Node minimum: 92.799 MB, node maximum: 96.993 MB


 NUMBER OF SORTED TWO-ELECTRON INTEGRALS:   18170820.     BUFFER LENGTH:  32768
 NUMBER OF SEGMENTS:   2  SEGMENT LENGTH:   15995235      RECORD LENGTH: 524288

 Memory used in sort:      16.55 MW

 SORT1 READ    61135278. AND WROTE    17915401. INTEGRALS IN     53 RECORDS. CPU TIME:     0.97 SEC, REAL TIME:     1.16 SEC
 SORT2 READ    53720035. AND WROTE    54502020. INTEGRALS IN   1086 RECORDS. CPU TIME:     0.34 SEC, REAL TIME:     0.48 SEC

 Node minimum:    18163860.  Node maximum:    18170820. integrals

 OPERATOR DM      FOR CENTER  0  COORDINATES:    0.000000    0.000000    0.000000
1PROGRAM * RHF-SCF (CLOSED SHELL)       Authors: W. Meyer, H.-J. Werner


 NUMBER OF ELECTRONS:       9+    9-    SPACE SYMMETRY=1    SPIN SYMMETRY: Singlet 
 CONVERGENCE THRESHOLDS:    1.00E-07 (Density)    1.00E-09 (Energy)
 MAX. NUMBER OF ITERATIONS:       60
 INTERPOLATION TYPE:            DIIS
 INTERPOLATION STEPS:              2 (START)      1 (STEP)
 LEVEL SHIFTS:                  0.00 (CLOSED)  0.00 (OPEN) 

 Number of closed-shell orbitals:    9 (   9 )


 Molecular orbitals read from record     2100.2  Type=RHF/CANONICAL (state 1.1)

 Molecular orbital dump at record        2100.1

 ITERATION    DDIFF          GRAD             ENERGY        2-EL.EN.            DIPOLE MOMENTS         DIIS   ORB.
    1      0.000D+00      0.000D+00       -79.25677434    134.811233    0.00000    0.00000   -0.00000    0    start
    2      0.000D+00      0.297D-04       -79.25677527    134.813058    0.00000    0.00000   -0.00000    1    diag
    3      0.386D-04      0.513D-05       -79.25677532    134.812143    0.00000    0.00000   -0.00000    2    diag
    4      0.710D-05      0.104D-05       -79.25677532    134.812664    0.00000    0.00000   -0.00000    3    diag
    5      0.147D-05      0.384D-06       -79.25677532    134.812465    0.00000    0.00000   -0.00000    4    diag
    6      0.498D-06      0.544D-07       -79.25677532    134.812474    0.00000    0.00000   -0.00000    5    diag
    7      0.107D-06      0.876D-08       -79.25677532    134.812474    0.00000    0.00000   -0.00000    6    diag
    8      0.163D-07      0.148D-08       -79.25677532    134.812474    0.00000    0.00000   -0.00000    0    orth

 Final occupancy:   9

 !RHF STATE 1.1 Energy                -79.256775322621
 Nuclear energy                        42.03146833
 One-electron energy                 -188.69448064
 Two-electron energy                   67.40623699
 Virial quotient                       -1.00299661
 !RHF STATE 1.1 Dipole moment           0.00000000     0.00000000    -0.00000000
 Dipole moment /Debye                   0.00000000     0.00000000    -0.00000000

 Orbital energies:

         1.1          2.1          3.1          4.1          5.1          6.1          7.1          8.1          9.1         10.1
    -11.218079   -11.217453    -1.016629    -0.828784    -0.596037    -0.596037    -0.503807    -0.482088    -0.482088     0.139857

        11.1
      0.183446

 HOMO      9.1    -0.482088 =     -13.1183eV
 LUMO     10.1     0.139857 =       3.8057eV
 LUMO-HOMO         0.621946 =      16.9240eV


 **********************************************************************************************************************************
 DATASETS  * FILE   NREC   LENGTH (MB)   RECORD NAMES
              1      19       20.92       500      610      700      900      950      970     1000      129      960     1100   
                                          VAR    BASINP    GEOM    SYMINP    ZMAT    AOBASIS   BASIS     P2S    ABASIS      S 
                                         1400     1410     1200     1210     1080     1600     1650     1700     2100   
                                           T        V       H0       H01     AOSYM     SMH    MOLCAS    OPER      RHF  

              2       5        1.34       700     1000      520     2100     5600   
                                         GEOM     BASIS   MCVARS     RHF     GINFO   

 PROGRAMS   *        TOTAL       RHF   CCSD(T)       RHF       INT
 CPU TIMES  *       105.53      4.02     22.23      3.79      4.25
 REAL TIME  *       121.72 SEC
 DISK USED  *         1.29 GB      
 SF USED    *       117.92 MB      
 GA USED    *         0.00 MB       (max)       0.00 MB       (current)
 **********************************************************************************************************************************


1PROGRAM * CCSD (Closed-shell coupled cluster)     Authors: C. Hampel, H.-J. Werner, 1991, M. Deegan, P.J. Knowles, 1992


 Convergence thresholds:  THRVAR = 1.00D-12  THRDEN = 1.00D-08

 CCSD(T)     terms to be evaluated (factor= 1.000)


 Number of core orbitals:           2 (   2 )
 Number of closed-shell orbitals:   7 (   7 )
 Number of external orbitals:     135 ( 135 )

 Molecular orbitals read from record     2100.1  Type=RHF/CANONICAL (state 1.1)

 Number of N-1 electron functions:               7
 Number of N-2 electron functions:              28
 Number of singly external CSFs:               945
 Number of doubly external CSFs:            446985
 Total number of CSFs:                      447931

 Length of J-op  integral file:               0.00 MB
 Length of K-op  integral file:               1.43 MB
 Length of 3-ext integral record:             0.00 MB

 Memory could be reduced to 25.00 Mwords without degradation in triples

 Integral transformation finished. Total CPU:   1.37 sec, npass=  1  Memory used:  13.46 MW

 Reference energy:                    -79.25677532

 MP2 singlet pair energy:              -0.25945720
 MP2 triplet pair energy:              -0.11134063
 MP2 correlation energy:               -0.37079783
 MP2 total energy:                    -79.62757315

 SCS-MP2 correlation energy:           -0.38062725   (PS=  1.200000  PT=  0.333333)
 SCS-MP2 total energy:                -79.63740258

 ITER.      SQ.NORM     CORR.ENERGY   TOTAL ENERGY   ENERGY CHANGE        DEN1      VAR(S)    VAR(P)  DIIS     TIME  TIME/IT
   1      1.13194724    -0.40004410   -79.65681942    -0.02924627    -0.01929700  0.95D-03  0.19D-02  1  1     2.06     0.70
   2      1.14192785    -0.40203752   -79.65881285    -0.00199342    -0.01007663  0.23D-04  0.17D-03  2  2     2.78     0.73
   3      1.14454940    -0.40213359   -79.65890891    -0.00009606    -0.00166651  0.26D-05  0.11D-04  3  3     3.49     0.74
   4      1.14518219    -0.40215453   -79.65892985    -0.00002094    -0.00027974  0.20D-06  0.55D-06  4  4     4.20     0.75
   5      1.14526750    -0.40215532   -79.65893064    -0.00000079    -0.00003241  0.22D-07  0.41D-07  5  5     4.91     0.75
   6      1.14527630    -0.40215400   -79.65892933     0.00000131    -0.00000373  0.24D-08  0.30D-08  6  6     5.63     0.75
   7      1.14527622    -0.40215389   -79.65892921     0.00000011     0.00000008  0.23D-09  0.25D-09  6  2     6.33     0.76
   8      1.14527656    -0.40215391   -79.65892924    -0.00000002    -0.00000020  0.29D-10  0.15D-10  6  1     7.05     0.76
   9      1.14527659    -0.40215390   -79.65892922     0.00000001    -0.00000003  0.33D-11  0.19D-11  6  3     7.77     0.76
  10      1.14527654    -0.40215390   -79.65892922    -0.00000000     0.00000006  0.39D-12  0.17D-12  6  4     8.49     0.76
  11      1.14527652    -0.40215390   -79.65892923    -0.00000000     0.00000002  0.26D-13  0.19D-13  6  5     9.21     0.76

 Norm of t1 vector:      0.04084788      S-energy:     0.00000000      T1 diagnostic:  0.00771952
                                                                       D1 diagnostic:  0.01307675

 Total CPU time for triples:      9.45 sec


 RESULTS
 =======

  Reference energy                    -79.256775322621
  CCSD singlet pair energy             -0.296547885530
  CCSD triplet pair energy             -0.105606018524
  CCSD correlation energy              -0.402153902401

  Triples (T) contribution             -0.013675816062
  Total correlation energy             -0.415829718462

  CCSD total energy                   -79.658929225022
  CCSD[T] energy                      -79.672961071659
  CCSD-T energy                       -79.672453495129
 !CCSD(T) total energy                -79.672605041084

 Timing summary (sec):

 STEP                 CPU(USER)    SYS     CPU(TOT)    WALL
 Transformation          1.38      0.17      1.55      1.54
 CCSD iterations         7.83      0.57      8.40      8.37
 Triples                 9.45      0.17      9.62      9.60

 Program statistics:

 Available memory in ccsd:               499998072
 Min. memory needed in ccsd:               1437889
 Max. memory used in ccsd:                 1802974
 Max. memory used in cckext:               1340122 (11 integral passes)



 **********************************************************************************************************************************
 DATASETS  * FILE   NREC   LENGTH (MB)   RECORD NAMES
              1      20       97.67       500      610      700      900      950      970     1000      129      960     1100   
                                          VAR    BASINP    GEOM    SYMINP    ZMAT    AOBASIS   BASIS     P2S    ABASIS      S 
                                         1400     1410     1200     1210     1080     1600     1650     1700     2100     1380   
                                           T        V       H0       H01     AOSYM     SMH    MOLCAS    OPER      RHF     JKOP   

              2       5        1.34       700     1000      520     2100     5600   
                                         GEOM     BASIS   MCVARS     RHF     GINFO   

 PROGRAMS   *        TOTAL   CCSD(T)   CCSD(T)       RHF       INT
 CPU TIMES  *       124.21     18.68     22.23      3.79      4.25
 REAL TIME  *       141.29 SEC
 DISK USED  *         1.29 GB      
 SF USED    *       117.92 MB      
 GA USED    *         0.00 MB       (max)       0.00 MB       (current)
 **********************************************************************************************************************************
 Starting task   5   Incrementing displacement  3 by  1.   CPU=   99.64 sec, Elapsed=  101.34 sec


 Recomputing integrals since geometry changed

1PROGRAM * SEWARD (Integral evaluation for generally contracted gaussian basis sets)     Author: Roland Lindh, 1990

 Geometry written to block  1 of record 700


 Point group  C1  



 ATOMIC COORDINATES

 NR  ATOM    CHARGE       X              Y              Z

   1  C       6.00  -12.258256720    8.455176909   -2.676832893
   2  C       6.00   -9.386330689    8.455173820   -2.676830212
   3  H       1.00  -12.970757310    9.773761450   -4.150918902
   4  H       1.00  -12.970761196    9.072481145   -0.797863842
   5  H       1.00  -12.970761816    6.519290435   -3.081717931
   6  H       1.00   -8.673825602   10.391060283   -2.271945108
   7  H       1.00   -8.673826210    7.837869651   -4.555799284
   8  H       1.00   -8.673830093    7.136589232   -1.202744248

 Bond lengths in Bohr (Angstrom)

 1-2  2.871926031  1-3  2.102201665  1-4  2.102201666  1-5  2.102201666  2-6  2.102201666
     ( 1.519757807)     ( 1.112437214)     ( 1.112437214)     ( 1.112437214)     ( 1.112437214)

 2-7  2.102201666  2-8  2.102201666
     ( 1.112437214)     ( 1.112437214)

 Bond angles

  1-2-6  109.81181816   1-2-7  109.81181833   1-2-8  109.81181839   2-1-3  109.81181820

  2-1-4  109.81181825   2-1-5  109.81181842   3-1-4  109.12848598   3-1-5  109.12848598

  4-1-5  109.12848597   6-2-7  109.12848598   6-2-8  109.12848597   7-2-8  109.12848597

 NUCLEAR CHARGE:                   18
 NUMBER OF PRIMITIVE AOS:         196
 NUMBER OF SYMMETRY AOS:          180
 NUMBER OF CONTRACTIONS:          144   ( 144A   )
 NUMBER OF CORE ORBITALS:           2   (   2A   )
 NUMBER OF VALENCE ORBITALS:       14   (  14A   )


 NUCLEAR REPULSION ENERGY   41.98730642


 Eigenvalues of metric

         1 0.125E-02 0.136E-02 0.168E-02 0.180E-02 0.180E-02 0.183E-02 0.183E-02 0.339E-02


 Contracted 2-electron integrals neglected if value below      1.0D-12
 AO integral compression algorithm  1   Integral accuracy      1.0D-12

     284.951 MB (compressed) written to integral file ( 58.2%)

     Node minimum: 89.129 MB, node maximum: 99.615 MB


 NUMBER OF SORTED TWO-ELECTRON INTEGRALS:   18170820.     BUFFER LENGTH:  32768
 NUMBER OF SEGMENTS:   2  SEGMENT LENGTH:   15995235      RECORD LENGTH: 524288

 Memory used in sort:      16.55 MW

 SORT1 READ    61135278. AND WROTE    17914916. INTEGRALS IN     53 RECORDS. CPU TIME:     1.02 SEC, REAL TIME:     1.19 SEC
 SORT2 READ    53718343. AND WROTE    54502020. INTEGRALS IN   1020 RECORDS. CPU TIME:     0.33 SEC, REAL TIME:     0.48 SEC

 Node minimum:    18163860.  Node maximum:    18170820. integrals

 OPERATOR DM      FOR CENTER  0  COORDINATES:    0.000000    0.000000    0.000000
1PROGRAM * RHF-SCF (CLOSED SHELL)       Authors: W. Meyer, H.-J. Werner


 NUMBER OF ELECTRONS:       9+    9-    SPACE SYMMETRY=1    SPIN SYMMETRY: Singlet 
 CONVERGENCE THRESHOLDS:    1.00E-07 (Density)    1.00E-09 (Energy)
 MAX. NUMBER OF ITERATIONS:       60
 INTERPOLATION TYPE:            DIIS
 INTERPOLATION STEPS:              2 (START)      1 (STEP)
 LEVEL SHIFTS:                  0.00 (CLOSED)  0.00 (OPEN) 

 Number of closed-shell orbitals:    9 (   9 )


 Molecular orbitals read from record     2100.2  Type=RHF/CANONICAL (state 1.1)

 Molecular orbital dump at record        2100.1

 ITERATION    DDIFF          GRAD             ENERGY        2-EL.EN.            DIPOLE MOMENTS         DIIS   ORB.
    1      0.000D+00      0.000D+00       -79.25623612    134.751490    0.00000    0.00000   -0.00000    0    start
    2      0.000D+00      0.603D-04       -79.25623961    134.724233   -0.00000    0.00000   -0.00000    1    diag
    3      0.145D-03      0.150D-04       -79.25623983    134.733809   -0.00000    0.00000   -0.00000    2    diag
    4      0.206D-04      0.497D-05       -79.25623986    134.730812   -0.00000    0.00000   -0.00000    3    diag
    5      0.577D-05      0.481D-06       -79.25623986    134.730916   -0.00000    0.00000   -0.00000    4    diag
    6      0.655D-06      0.996D-07       -79.25623986    134.730906   -0.00000    0.00000   -0.00000    5    diag
    7      0.171D-06      0.156D-07       -79.25623986    134.730906   -0.00000    0.00000   -0.00000    6    diag
    8      0.337D-07      0.219D-08       -79.25623986    134.730906   -0.00000    0.00000   -0.00000    0    orth

 Final occupancy:   9

 !RHF STATE 1.1 Energy                -79.256239861555
 Nuclear energy                        41.98730642
 One-electron energy                 -188.60899907
 Two-electron energy                   67.36545279
 Virial quotient                       -1.00321091
 !RHF STATE 1.1 Dipole moment          -0.00000000     0.00000000    -0.00000000
 Dipole moment /Debye                  -0.00000000     0.00000000    -0.00000000

 Orbital energies:

         1.1          2.1          3.1          4.1          5.1          6.1          7.1          8.1          9.1         10.1
    -11.218920   -11.218296    -1.016161    -0.827636    -0.595788    -0.595788    -0.502955    -0.481751    -0.481751     0.139687

        11.1
      0.183509

 HOMO      9.1    -0.481751 =     -13.1091eV
 LUMO     10.1     0.139687 =       3.8011eV
 LUMO-HOMO         0.621438 =      16.9102eV


 **********************************************************************************************************************************
 DATASETS  * FILE   NREC   LENGTH (MB)   RECORD NAMES
              1      19       20.92       500      610      700      900      950      970     1000      129      960     1100   
                                          VAR    BASINP    GEOM    SYMINP    ZMAT    AOBASIS   BASIS     P2S    ABASIS      S 
                                         1400     1410     1200     1210     1080     1600     1650     1700     2100   
                                           T        V       H0       H01     AOSYM     SMH    MOLCAS    OPER      RHF  

              2       5        1.34       700     1000      520     2100     5600   
                                         GEOM     BASIS   MCVARS     RHF     GINFO   

 PROGRAMS   *        TOTAL       RHF   CCSD(T)       RHF       INT
 CPU TIMES  *       128.32      4.10     22.23      3.79      4.25
 REAL TIME  *       145.97 SEC
 DISK USED  *         1.29 GB      
 SF USED    *       117.92 MB      
 GA USED    *         0.00 MB       (max)       0.00 MB       (current)
 **********************************************************************************************************************************


1PROGRAM * CCSD (Closed-shell coupled cluster)     Authors: C. Hampel, H.-J. Werner, 1991, M. Deegan, P.J. Knowles, 1992


 Convergence thresholds:  THRVAR = 1.00D-12  THRDEN = 1.00D-08

 CCSD(T)     terms to be evaluated (factor= 1.000)


 Number of core orbitals:           2 (   2 )
 Number of closed-shell orbitals:   7 (   7 )
 Number of external orbitals:     135 ( 135 )

 Molecular orbitals read from record     2100.1  Type=RHF/CANONICAL (state 1.1)

 Number of N-1 electron functions:               7
 Number of N-2 electron functions:              28
 Number of singly external CSFs:               945
 Number of doubly external CSFs:            446985
 Total number of CSFs:                      447931

 Length of J-op  integral file:               0.00 MB
 Length of K-op  integral file:               1.43 MB
 Length of 3-ext integral record:             0.00 MB

 Memory could be reduced to 25.00 Mwords without degradation in triples

 Integral transformation finished. Total CPU:   1.41 sec, npass=  1  Memory used:  13.46 MW

 Reference energy:                    -79.25623986

 MP2 singlet pair energy:              -0.25955927
 MP2 triplet pair energy:              -0.11133082
 MP2 correlation energy:               -0.37089010
 MP2 total energy:                    -79.62712996

 SCS-MP2 correlation energy:           -0.38074364   (PS=  1.200000  PT=  0.333333)
 SCS-MP2 total energy:                -79.63698350

 ITER.      SQ.NORM     CORR.ENERGY   TOTAL ENERGY   ENERGY CHANGE        DEN1      VAR(S)    VAR(P)  DIIS     TIME  TIME/IT
   1      1.13221591    -0.40015577   -79.65639563    -0.02926567    -0.01928331  0.95D-03  0.19D-02  1  1     2.11     0.72
   2      1.14224919    -0.40215997   -79.65839983    -0.00200420    -0.01010686  0.23D-04  0.17D-03  2  2     2.85     0.75
   3      1.14489574    -0.40225765   -79.65849751    -0.00009768    -0.00167912  0.26D-05  0.11D-04  3  3     3.58     0.76
   4      1.14553514    -0.40227883   -79.65851869    -0.00002118    -0.00028237  0.20D-06  0.56D-06  4  4     4.29     0.76
   5      1.14562129    -0.40227968   -79.65851954    -0.00000085    -0.00003266  0.22D-07  0.41D-07  5  5     5.01     0.77
   6      1.14563019    -0.40227836   -79.65851822     0.00000132    -0.00000377  0.25D-08  0.31D-08  6  6     5.72     0.77
   7      1.14563011    -0.40227824   -79.65851810     0.00000012     0.00000008  0.23D-09  0.26D-09  6  2     6.44     0.77
   8      1.14563045    -0.40227826   -79.65851813    -0.00000002    -0.00000020  0.29D-10  0.15D-10  6  1     7.19     0.77
   9      1.14563048    -0.40227825   -79.65851811     0.00000001    -0.00000003  0.34D-11  0.19D-11  6  3     7.95     0.78
  10      1.14563044    -0.40227825   -79.65851811    -0.00000000     0.00000006  0.40D-12  0.18D-12  6  4     8.69     0.78
  11      1.14563041    -0.40227825   -79.65851812    -0.00000000     0.00000002  0.27D-13  0.20D-13  6  5     9.43     0.78

 Norm of t1 vector:      0.04094608      S-energy:     0.00000000      T1 diagnostic:  0.00773808
                                                                       D1 diagnostic:  0.01309452

 Total CPU time for triples:      9.84 sec


 RESULTS
 =======

  Reference energy                    -79.256239861555
  CCSD singlet pair energy             -0.296720177429
  CCSD triplet pair energy             -0.105558078111
  CCSD correlation energy              -0.402278253917

  Triples (T) contribution             -0.013704263282
  Total correlation energy             -0.415982517199

  CCSD total energy                   -79.658518115472
  CCSD[T] energy                      -79.672580760117
  CCSD-T energy                       -79.672069755379
 !CCSD(T) total energy                -79.672222378755

 Timing summary (sec):

 STEP                 CPU(USER)    SYS     CPU(TOT)    WALL
 Transformation          1.42      0.19      1.61      1.59
 CCSD iterations         8.01      0.59      8.60      8.59
 Triples                 9.84      0.17     10.01     10.00

 Program statistics:

 Available memory in ccsd:               499998072
 Min. memory needed in ccsd:               1437889
 Max. memory used in ccsd:                 1802974
 Max. memory used in cckext:               1340122 (11 integral passes)



 **********************************************************************************************************************************
 DATASETS  * FILE   NREC   LENGTH (MB)   RECORD NAMES
              1      20       97.67       500      610      700      900      950      970     1000      129      960     1100   
                                          VAR    BASINP    GEOM    SYMINP    ZMAT    AOBASIS   BASIS     P2S    ABASIS      S 
                                         1400     1410     1200     1210     1080     1600     1650     1700     2100     1380   
                                           T        V       H0       H01     AOSYM     SMH    MOLCAS    OPER      RHF     JKOP   

              2       5        1.34       700     1000      520     2100     5600   
                                         GEOM     BASIS   MCVARS     RHF     GINFO   

 PROGRAMS   *        TOTAL   CCSD(T)   CCSD(T)       RHF       INT
 CPU TIMES  *       147.62     19.28     22.23      3.79      4.25
 REAL TIME  *       166.20 SEC
 DISK USED  *         1.29 GB      
 SF USED    *       117.92 MB      
 GA USED    *         0.00 MB       (max)       0.00 MB       (current)
 **********************************************************************************************************************************
 Starting task   6   Incrementing displacement  3 by -1.   CPU=  124.60 sec, Elapsed=  126.26 sec


 Recomputing integrals since geometry changed

1PROGRAM * SEWARD (Integral evaluation for generally contracted gaussian basis sets)     Author: Roland Lindh, 1990

 Geometry written to block  1 of record 700


 Point group  C1  



 ATOMIC COORDINATES

 NR  ATOM    CHARGE       X              Y              Z

   1  C       6.00  -12.257130435    8.455176908   -2.676832892
   2  C       6.00   -9.387456974    8.455173821   -2.676830213
   3  H       1.00  -12.967859237    9.768690796   -4.145250262
   4  H       1.00  -12.967863109    9.070107284   -0.805089470
   5  H       1.00  -12.967863726    6.526734941   -3.080160934
   6  H       1.00   -8.676723692   10.383615777   -2.273502105
   7  H       1.00   -8.676724298    7.840243512   -4.548573656
   8  H       1.00   -8.676728165    7.141659886   -1.208412887

 Bond lengths in Bohr (Angstrom)

 1-2  2.869673461  1-3  2.094445926  1-4  2.094445926  1-5  2.094445927  2-6  2.094445926
     ( 1.518565799)     ( 1.108333054)     ( 1.108333054)     ( 1.108333054)     ( 1.108333054)

 2-7  2.094445927  2-8  2.094445927
[...]
 !RHF STATE 1.1 Dipole moment           0.00040264     0.00001277     0.00061000
 Dipole moment /Debye                   0.00102333     0.00003245     0.00155036

 Orbital energies:

         1.1          2.1          3.1          4.1          5.1          6.1          7.1          8.1          9.1         10.1
    -11.212057   -11.211407    -1.016877    -0.840938    -0.596315    -0.595900    -0.508486    -0.486755    -0.486332     0.141124

        11.1
      0.182067

 HOMO      9.1    -0.486332 =     -13.2338eV
 LUMO     10.1     0.141124 =       3.8402eV
 LUMO-HOMO         0.627456 =      17.0739eV


 **********************************************************************************************************************************
 DATASETS  * FILE   NREC   LENGTH (MB)   RECORD NAMES
              1      19       20.92       500      610      700      900      950      970     1000      129      960     1100   
                                          VAR    BASINP    GEOM    SYMINP    ZMAT    AOBASIS   BASIS     P2S    ABASIS      S 
                                         1400     1410     1200     1210     1080     1600     1650     1700     2100   
                                           T        V       H0       H01     AOSYM     SMH    MOLCAS    OPER      RHF  

              2       6        1.37       700     1000      520     2100     5600     5500   
                                         GEOM     BASIS   MCVARS     RHF     GINFO    HINFO   

 PROGRAMS   *        TOTAL       RHF      OPTG   CCSD(T)       RHF       INT
 CPU TIMES  *      2504.34      3.56   1099.82     22.23      3.79      4.25
 REAL TIME  *      2683.48 SEC
 DISK USED  *         1.30 GB      
 SF USED    *       117.92 MB      
 GA USED    *         0.00 MB       (max)       0.00 MB       (current)
 **********************************************************************************************************************************


1PROGRAM * CCSD (Closed-shell coupled cluster)     Authors: C. Hampel, H.-J. Werner, 1991, M. Deegan, P.J. Knowles, 1992


 Convergence thresholds:  THRVAR = 1.00D-12  THRDEN = 1.00D-08

 CCSD(T)     terms to be evaluated (factor= 1.000)


 Number of core orbitals:           2 (   2 )
 Number of closed-shell orbitals:   7 (   7 )
 Number of external orbitals:     135 ( 135 )

 Molecular orbitals read from record     2100.1  Type=RHF/CANONICAL (state 1.1)

 Number of N-1 electron functions:               7
 Number of N-2 electron functions:              28
 Number of singly external CSFs:               945
 Number of doubly external CSFs:            446985
 Total number of CSFs:                      447931

 Length of J-op  integral file:               0.00 MB
 Length of K-op  integral file:               1.43 MB
 Length of 3-ext integral record:             0.00 MB

 Memory could be reduced to 25.01 Mwords without degradation in triples

 Integral transformation finished. Total CPU:   1.16 sec, npass=  1  Memory used:  13.46 MW

 Reference energy:                    -79.25976621

 MP2 singlet pair energy:              -0.25871357
 MP2 triplet pair energy:              -0.11135417
 MP2 correlation energy:               -0.37006774
 MP2 total energy:                    -79.62983395

 SCS-MP2 correlation energy:           -0.37974333   (PS=  1.200000  PT=  0.333333)
 SCS-MP2 total energy:                -79.63950954

 ITER.      SQ.NORM     CORR.ENERGY   TOTAL ENERGY   ENERGY CHANGE        DEN1      VAR(S)    VAR(P)  DIIS     TIME  TIME/IT
   1      1.13000596    -0.39918396   -79.65895017    -0.02911621    -0.01942015  0.90D-03  0.18D-02  1  1     1.76     0.61
   2      1.13957578    -0.40109069   -79.66085690    -0.00190673    -0.00983907  0.22D-04  0.15D-03  2  2     2.37     0.63
   3      1.14200880    -0.40117424   -79.66094045    -0.00008355    -0.00157228  0.25D-05  0.99D-05  3  3     2.98     0.64
   4      1.14259109    -0.40119360   -79.66095981    -0.00001937    -0.00025945  0.18D-06  0.49D-06  4  4     3.60     0.65
   5      1.14266989    -0.40119399   -79.66096020    -0.00000039    -0.00003050  0.19D-07  0.36D-07  5  5     4.22     0.65
   6      1.14267787    -0.40119276   -79.66095897     0.00000123    -0.00000344  0.22D-08  0.26D-08  6  6     4.84     0.65
   7      1.14267779    -0.40119267   -79.66095888     0.00000009     0.00000009  0.20D-09  0.21D-09  6  2     5.46     0.66
   8      1.14267809    -0.40119269   -79.66095890    -0.00000002    -0.00000019  0.25D-10  0.13D-10  6  1     6.09     0.66
   9      1.14267812    -0.40119267   -79.66095888     0.00000001    -0.00000002  0.29D-11  0.16D-11  6  3     6.72     0.66
  10      1.14267808    -0.40119268   -79.66095889    -0.00000000     0.00000005  0.32D-12  0.14D-12  6  4     7.33     0.66
  11      1.14267805    -0.40119268   -79.66095889    -0.00000000     0.00000002  0.20D-13  0.16D-13  6  1     7.95     0.66

 Norm of t1 vector:      0.03992248      S-energy:     0.00000000      T1 diagnostic:  0.00754464
                                                                       D1 diagnostic:  0.01288464

 Total CPU time for triples:      8.44 sec


 RESULTS
 =======

  Reference energy                    -79.259766209710
  CCSD singlet pair energy             -0.295289361316
  CCSD triplet pair energy             -0.105903316739
  CCSD correlation energy              -0.401192677991

  Triples (T) contribution             -0.013479990029
  Total correlation energy             -0.414672668020

  CCSD total energy                   -79.660958887701
  CCSD[T] energy                      -79.674776517123
  CCSD-T energy                       -79.674294389819
 !CCSD(T) total energy                -79.674438877731

 Timing summary (sec):

 STEP                 CPU(USER)    SYS     CPU(TOT)    WALL
 Transformation          1.17      0.17      1.34      1.34
 CCSD iterations         6.79      0.52      7.31      7.27
 Triples                 8.44      0.17      8.61      8.61

 Program statistics:

 Available memory in ccsd:               499991989
 Min. memory needed in ccsd:               1437889
 Max. memory used in ccsd:                 1802974
 Max. memory used in cckext:               1340122 (11 integral passes)



 **********************************************************************************************************************************
 DATASETS  * FILE   NREC   LENGTH (MB)   RECORD NAMES
              1      20       97.67       500      610      700      900      950      970     1000      129      960     1100   
                                          VAR    BASINP    GEOM    SYMINP    ZMAT    AOBASIS   BASIS     P2S    ABASIS      S 
                                         1400     1410     1200     1210     1080     1600     1650     1700     2100     1380   
                                           T        V       H0       H01     AOSYM     SMH    MOLCAS    OPER      RHF     JKOP   

              2       6        1.37       700     1000      520     2100     5600     5500   
                                         GEOM     BASIS   MCVARS     RHF     GINFO    HINFO   

 PROGRAMS   *        TOTAL   CCSD(T)      OPTG   CCSD(T)       RHF       INT
 CPU TIMES  *      2520.77     16.43   1099.82     22.23      3.79      4.25
 REAL TIME  *      2700.78 SEC
 DISK USED  *         1.30 GB      
 SF USED    *       117.92 MB      
 GA USED    *         0.00 MB       (max)       0.00 MB       (current)
 **********************************************************************************************************************************
 Starting task  70.  CPU=  1486.54 sec, Elapsed=  1484.24 sec
 Incrementing variable GY3              by -0.005292 ANG   to    5.147659 ANG
 Incrementing variable GX3              by -0.005292 ANG   to   -6.891492 ANG


 Recomputing integrals since geometry changed

1PROGRAM * SEWARD (Integral evaluation for generally contracted gaussian basis sets)     Author: Roland Lindh, 1990

 Geometry written to block  1 of record 700


 Point group  C1  



 ATOMIC COORDINATES

 NR  ATOM    CHARGE       X              Y              Z

   1  C       6.00  -12.266987256    8.455176918   -2.676832902
   2  C       6.00   -9.377600153    8.455173810   -2.676830204
   3  H       1.00  -13.023031707    9.727665640   -4.110566273
   4  H       1.00  -13.013035483    9.055582683   -0.849300144
   5  H       1.00  -13.013036086    6.572284844   -3.070634376
   6  H       1.00   -8.631551330   10.338065874   -2.283028665
   7  H       1.00   -8.631551921    7.854768110   -4.504362981
   8  H       1.00   -8.631555700    7.172685045   -1.243096874

 Bond lengths in Bohr (Angstrom)

 1-2  2.889387104  1-3  2.060684871  1-4  2.063237994  1-5  2.063237994  2-6  2.063237995
     ( 1.528997809)     ( 1.090467473)     ( 1.091818527)     ( 1.091818527)     ( 1.091818527)

 2-7  2.063237995  2-8  2.063237994
     ( 1.091818527)     ( 1.091818527)

 Bond angles

  1-2-6  111.19790349   1-2-7  111.19790367   1-2-8  111.19790364   2-1-3  111.52401718

  2-1-4  111.19790353   2-1-5  111.19790370   3-1-4  107.69274657   3-1-5  107.34182257

  4-1-5  107.69070524   6-2-7  107.69070523   6-2-8  107.69070521   7-2-8  107.69070527

 NUCLEAR CHARGE:                   18
 NUMBER OF PRIMITIVE AOS:         196
 NUMBER OF SYMMETRY AOS:          180
 NUMBER OF CONTRACTIONS:          144   ( 144A   )
 NUMBER OF CORE ORBITALS:           2   (   2A   )
 NUMBER OF VALENCE ORBITALS:       14   (  14A   )


 NUCLEAR REPULSION ENERGY   42.23145971

 Eigenvalues of metric

         1 0.120E-02 0.130E-02 0.166E-02 0.166E-02 0.168E-02 0.169E-02 0.169E-02 0.341E-02


 Contracted 2-electron integrals neglected if value below      1.0D-12
 AO integral compression algorithm  1   Integral accuracy      1.0D-12

     285.475 MB (compressed) written to integral file ( 58.3%)

     Node minimum: 92.799 MB, node maximum: 98.828 MB


 NUMBER OF SORTED TWO-ELECTRON INTEGRALS:   18170820.     BUFFER LENGTH:  32768
 NUMBER OF SEGMENTS:   2  SEGMENT LENGTH:   15995235      RECORD LENGTH: 524288

 Memory used in sort:      16.55 MW

 SORT1 READ    61135278. AND WROTE    17915691. INTEGRALS IN     53 RECORDS. CPU TIME:     0.84 SEC, REAL TIME:     0.99 SEC
 SORT2 READ    53722106. AND WROTE    54502020. INTEGRALS IN   1062 RECORDS. CPU TIME:     0.27 SEC, REAL TIME:     0.40 SEC

 Node minimum:    18163860.  Node maximum:    18170820. integrals

 OPERATOR DM      FOR CENTER  0  COORDINATES:    0.000000    0.000000    0.000000
1PROGRAM * RHF-SCF (CLOSED SHELL)       Authors: W. Meyer, H.-J. Werner


 NUMBER OF ELECTRONS:       9+    9-    SPACE SYMMETRY=1    SPIN SYMMETRY: Singlet 
 CONVERGENCE THRESHOLDS:    1.00E-07 (Density)    1.00E-09 (Energy)
 MAX. NUMBER OF ITERATIONS:       60
 INTERPOLATION TYPE:            DIIS
 INTERPOLATION STEPS:              2 (START)      1 (STEP)
 LEVEL SHIFTS:                  0.00 (CLOSED)  0.00 (OPEN) 

 Number of closed-shell orbitals:    9 (   9 )


 Molecular orbitals read from record     2100.2  Type=RHF/CANONICAL (state 1.1)

 Molecular orbital dump at record        2100.1

 ITERATION    DDIFF          GRAD             ENERGY        2-EL.EN.            DIPOLE MOMENTS         DIIS   ORB.
    1      0.000D+00      0.000D+00       -79.25979129    135.157613   -0.00056   -0.00061   -0.00006    0    start
    2      0.000D+00      0.472D-04       -79.25979406    135.160798   -0.00035   -0.00044   -0.00024    1    diag
    3      0.715D-04      0.101D-04       -79.25979430    135.159487   -0.00043   -0.00012   -0.00056    2    diag
    4      0.146D-04      0.256D-05       -79.25979432    135.160342   -0.00038   -0.00007   -0.00058    3    diag
    5      0.344D-05      0.909D-06       -79.25979432    135.160023   -0.00039   -0.00004   -0.00059    4    diag
    6      0.122D-05      0.145D-06       -79.25979432    135.160053   -0.00039   -0.00003   -0.00060    5    diag
    7      0.277D-06      0.286D-07       -79.25979432    135.160047   -0.00039   -0.00004   -0.00060    6    diag
    8      0.613D-07      0.625D-08       -79.25979432    135.160049   -0.00039   -0.00004   -0.00060    0    orth

 Final occupancy:   9

 !RHF STATE 1.1 Energy                -79.259794322388
 Nuclear energy                        42.23145971
 One-electron energy                 -189.07127843
 Two-electron energy                   67.58002440
 Virial quotient                       -1.00137952
 !RHF STATE 1.1 Dipole moment          -0.00038691    -0.00003540    -0.00059671
 Dipole moment /Debye                  -0.00098337    -0.00008998    -0.00151659

 Orbital energies:

         1.1          2.1          3.1          4.1          5.1          6.1          7.1          8.1          9.1         10.1
    -11.211933   -11.211285    -1.016872    -0.841469    -0.596136    -0.595717    -0.509116    -0.486753    -0.486334     0.141163

        11.1
      0.181912

 HOMO      9.1    -0.486334 =     -13.2338eV
 LUMO     10.1     0.141163 =       3.8412eV
 LUMO-HOMO         0.627497 =      17.0751eV


 **********************************************************************************************************************************
 DATASETS  * FILE   NREC   LENGTH (MB)   RECORD NAMES
              1      19       20.92       500      610      700      900      950      970     1000      129      960     1100   
                                          VAR    BASINP    GEOM    SYMINP    ZMAT    AOBASIS   BASIS     P2S    ABASIS      S 
                                         1400     1410     1200     1210     1080     1600     1650     1700     2100   
                                           T        V       H0       H01     AOSYM     SMH    MOLCAS    OPER      RHF  

              2       6        1.37       700     1000      520     2100     5600     5500   
                                         GEOM     BASIS   MCVARS     RHF     GINFO    HINFO   

 PROGRAMS   *        TOTAL       RHF      OPTG   CCSD(T)       RHF       INT
 CPU TIMES  *      2524.33      3.56   1099.82     22.23      3.79      4.25
 REAL TIME  *      2704.86 SEC
 DISK USED  *         1.30 GB      
 SF USED    *       117.92 MB      
 GA USED    *         0.00 MB       (max)       0.00 MB       (current)
 **********************************************************************************************************************************


1PROGRAM * CCSD (Closed-shell coupled cluster)     Authors: C. Hampel, H.-J. Werner, 1991, M. Deegan, P.J. Knowles, 1992


 Convergence thresholds:  THRVAR = 1.00D-12  THRDEN = 1.00D-08

 CCSD(T)     terms to be evaluated (factor= 1.000)


 Number of core orbitals:           2 (   2 )
 Number of closed-shell orbitals:   7 (   7 )
 Number of external orbitals:     135 ( 135 )

 Molecular orbitals read from record     2100.1  Type=RHF/CANONICAL (state 1.1)

 Number of N-1 electron functions:               7
 Number of N-2 electron functions:              28
 Number of singly external CSFs:               945
 Number of doubly external CSFs:            446985
 Total number of CSFs:                      447931

 Length of J-op  integral file:               0.00 MB
 Length of K-op  integral file:               1.43 MB
 Length of 3-ext integral record:             0.00 MB

 Memory could be reduced to 25.01 Mwords without degradation in triples

 Integral transformation finished. Total CPU:   1.20 sec, npass=  1  Memory used:  13.46 MW

 Reference energy:                    -79.25979432

 MP2 singlet pair energy:              -0.25869235
 MP2 triplet pair energy:              -0.11135860
 MP2 correlation energy:               -0.37005095
 MP2 total energy:                    -79.62984528

 SCS-MP2 correlation energy:           -0.37972062   (PS=  1.200000  PT=  0.333333)
 SCS-MP2 total energy:                -79.63951494

 ITER.      SQ.NORM     CORR.ENERGY   TOTAL ENERGY   ENERGY CHANGE        DEN1      VAR(S)    VAR(P)  DIIS     TIME  TIME/IT
   1      1.12995694    -0.39916404   -79.65895836    -0.02911309    -0.01942357  0.90D-03  0.18D-02  1  1     1.79     0.64
   2      1.13951715    -0.40106829   -79.66086261    -0.00190425    -0.00983351  0.22D-04  0.15D-03  2  2     2.42     0.65
   3      1.14194502    -0.40115162   -79.66094595    -0.00008333    -0.00156918  0.25D-05  0.99D-05  3  3     3.03     0.65
   4      1.14252598    -0.40117094   -79.66096526    -0.00001932    -0.00025887  0.18D-06  0.49D-06  4  4     3.64     0.65
   5      1.14260459    -0.40117132   -79.66096564    -0.00000038    -0.00003043  0.19D-07  0.36D-07  5  5     4.26     0.66
   6      1.14261258    -0.40117009   -79.66096441     0.00000123    -0.00000345  0.22D-08  0.26D-08  6  6     4.88     0.66
   7      1.14261250    -0.40117000   -79.66096432     0.00000009     0.00000009  0.20D-09  0.21D-09  6  2     5.50     0.66
   8      1.14261281    -0.40117002   -79.66096434    -0.00000002    -0.00000020  0.25D-10  0.13D-10  6  1     6.11     0.66
   9      1.14261284    -0.40117001   -79.66096433     0.00000001    -0.00000002  0.29D-11  0.16D-11  6  3     6.72     0.66
  10      1.14261280    -0.40117001   -79.66096433    -0.00000000     0.00000005  0.31D-12  0.14D-12  6  4     7.34     0.66
  11      1.14261277    -0.40117001   -79.66096433    -0.00000000     0.00000002  0.20D-13  0.16D-13  6  1     7.95     0.66

 Norm of t1 vector:      0.03990350      S-energy:     0.00000000      T1 diagnostic:  0.00754105
                                                                       D1 diagnostic:  0.01288612

 Total CPU time for triples:      8.41 sec


 RESULTS
 =======

  Reference energy                    -79.259794322388
  CCSD singlet pair energy             -0.295254137585
  CCSD triplet pair energy             -0.105915873423
  CCSD correlation energy              -0.401170008612

  Triples (T) contribution             -0.013474614731
  Total correlation energy             -0.414644623344

  CCSD total energy                   -79.660964331000
  CCSD[T] energy                      -79.674776220340
  CCSD-T energy                       -79.674294633416
 !CCSD(T) total energy                -79.674438945732

 Timing summary (sec):

 STEP                 CPU(USER)    SYS     CPU(TOT)    WALL
 Transformation          1.21      0.15      1.36      1.35
 CCSD iterations         6.74      0.52      7.26      7.26
 Triples                 8.41      0.16      8.57      8.57

 Program statistics:

 Available memory in ccsd:               499991989
 Min. memory needed in ccsd:               1437889
 Max. memory used in ccsd:                 1802974
 Max. memory used in cckext:               1340122 (11 integral passes)



 **********************************************************************************************************************************
 DATASETS  * FILE   NREC   LENGTH (MB)   RECORD NAMES
              1      20       97.67       500      610      700      900      950      970     1000      129      960     1100   
                                          VAR    BASINP    GEOM    SYMINP    ZMAT    AOBASIS   BASIS     P2S    ABASIS      S 
                                         1400     1410     1200     1210     1080     1600     1650     1700     2100     1380   
                                           T        V       H0       H01     AOSYM     SMH    MOLCAS    OPER      RHF     JKOP   

              2       6        1.37       700     1000      520     2100     5600     5500   
                                         GEOM     BASIS   MCVARS     RHF     GINFO    HINFO   

 PROGRAMS   *        TOTAL   CCSD(T)      OPTG   CCSD(T)       RHF       INT
 CPU TIMES  *      2540.71     16.38   1099.82     22.23      3.79      4.25
 REAL TIME  *      2722.09 SEC
 DISK USED  *         1.30 GB      
 SF USED    *       117.92 MB      
 GA USED    *         0.00 MB       (max)       0.00 MB       (current)
 **********************************************************************************************************************************
