
 Primary working directories    : /scratch/kmoore
 Secondary working directories  : /scratch/kmoore
 Wavefunction directory         : /scratch/kmoore/
 Main file repository           : /scratch/kmoore/

 SHA1      : b6b3a4772808bb2d43777f23454e145ddfe12dc3
 NAME      : 2015.1.1
 ARCHNAME  : linux/x86_64
 FC        : /soft/mvapich2/2.2b_psm/intel-15.0/bin/mpif90
 BLASLIB   : -L/soft/intel/15.0.1/composer_xe_2015.0.090/mkl/lib/intel64 -lmkl_intel_ilp64 -lmkl_sequential -lmkl_core
 id        : anlgov

 Nodes     nprocs
 b440         7
 Number of processes for MPI-2 version of Molpro:   nprocs(total)=    8   nprocs(compute)=    7   nprocs(helper)=    1

 Using customized tuning parameters: mindgm=1; mindgv=20; mindgc=4; mindgr=1; noblas=0; minvec=7
 default implementation of scratch files=sf  

 memory,1000,m
 gthresh,energy=1.0d-10,orbital=1.0d-10
 
 angstrom
 Geometry = {
 O
 H 1 r1
 H 1 r1 2 a1
 }
 
 r1 =  0.98
 a1 = 104.5
 
 basis=6-31g*
 
 {rhf}
 {ccsd(t)}
 {optg}
 {freq}
 

 Variables initialized (889), CPU time= 0.01 sec
 Commands  initialized (702), CPU time= 0.01 sec, 572 directives.
 Default parameters read. Elapsed time= 0.06 sec

 Checking input...
 Passed
1


                                         ***  PROGRAM SYSTEM MOLPRO  ***
                                       Copyright, TTI GmbH Stuttgart, 2015
                                    Version 2015.1 linked Jan  8 2016 07:59:11


 **********************************************************************************************************************************
 LABEL *                                                                                 
  64 bit mpp version                                                                     DATE: 08-Jan-19          TIME: 14:00:32  
 **********************************************************************************************************************************

 SHA1:             b6b3a4772808bb2d43777f23454e145ddfe12dc3
 **********************************************************************************************************************************

 THRESHOLDS:

 ZERO    =  1.00D-12  ONEINT  =  1.00D-12  TWOINT  =  1.00D-11  PREFAC  =  1.00D-14  LOCALI  =  1.00D-09  EORDER  =  1.00D-04
 ENERGY  =  1.00D-10  ETEST   =  0.00D+00  EDENS   =  0.00D+00  THRDEDEF=  1.00D-06  GRADIENT=  1.00D-02  STEP    =  1.00D-03
 ORBITAL =  1.00D-10  CIVEC   =  1.00D-05  COEFF   =  1.00D-04  PRINTCI =  5.00D-02  PUNCHCI =  9.90D+01  OPTGRAD =  3.00D-04
 OPTENERG=  1.00D-06  OPTSTEP =  3.00D-04  THRGRAD =  1.00D-10  COMPRESS=  1.00D-11  VARMIN  =  1.00D-07  VARMAX  =  1.00D-03
 THRDOUB =  0.00D+00  THRDIV  =  1.00D-05  THRRED  =  1.00D-07  THRPSP  =  1.00D+00  THRDC   =  1.00D-10  THRCS   =  1.00D-10
 THRNRM  =  1.00D-08  THREQ   =  0.00D+00  THRDE   =  1.00D+00  THRREF  =  1.00D-05  SPARFAC =  1.00D+00  THRDLP  =  1.00D-07
 THRDIA  =  1.00D-10  THRDLS  =  1.00D-07  THRGPS  =  0.00D+00  THRKEX  =  0.00D+00  THRDIS  =  2.00D-01  THRVAR  =  1.00D-10
 THRLOC  =  1.00D-06  THRGAP  =  1.00D-06  THRLOCT = -1.00D+00  THRGAPT = -1.00D+00  THRORB  =  1.00D-06  THRMLTP =  0.00D+00
 THRCPQCI=  1.00D-10  KEXTA   =  0.00D+00  THRCOARS=  0.00D+00  SYMTOL  =  1.00D-06  GRADTOL =  1.00D-06  THROVL  =  1.00D-08
 THRORTH =  1.00D-08  GRID    =  1.00D-06  GRIDMAX =  1.00D-03  DTMAX   =  0.00D+00  THROCCDE=  1.00D-01  THROCCDE=  1.00D-01


 ZUNIT=ANG
 
 SETTING R1             =         0.98000000                                  
 SETTING A1             =       104.50000000                                  

 Variable memory set to 1000000000 words,  buffer space   230000 words

 SETTING BASIS          =    6-31G*


 Recomputing integrals since basis changed


 Using spherical harmonics

 Library entry O      S 6-31G                selected for orbital group  1
 Library entry O      P 6-31G                selected for orbital group  1
 Library entry O      D 6-31G*               selected for orbital group  1
 Library entry H      S 6-31G                selected for orbital group  2

1PROGRAM * SEWARD (Integral evaluation for generally contracted gaussian basis sets)     Author: Roland Lindh, 1990

 Geometry written to block  1 of record 700

 Orientation using atomic masses  
 Molecule type: Asymmetric top,     Order of principal axis = 2
 Symmetry elements: X,Y
 Rotational constants:     272.4632506    784.1994164    417.5306268 GHz  (calculated with average atomic masses)

 Point group  C2v 



 ATOMIC COORDINATES

 NR  ATOM    CHARGE       X              Y              Z

   1  O       8.00    0.000000000    0.000000000   -0.126868611
   2  H       1.00    0.000000000    1.464303009    1.006915917
   3  H       1.00    0.000000000   -1.464303009    1.006915917

 Bond lengths in Bohr (Angstrom)

 1-2  1.851931602  1-3  1.851931602
     ( 0.980000000)     ( 0.980000000)

 Bond angles

  2-1-3  104.50000000

 NUCLEAR CHARGE:                   10
 NUMBER OF PRIMITIVE AOS:          36
 NUMBER OF SYMMETRY AOS:           35
 NUMBER OF CONTRACTIONS:           18   (   9A1  +   3B1  +   5B2  +   1A2  )
 NUMBER OF CORE ORBITALS:           1   (   1A1  +   0B1  +   0B2  +   0A2  )
 NUMBER OF VALENCE ORBITALS:        6   (   3A1  +   1B1  +   2B2  +   0A2  )


 NUCLEAR REPULSION ENERGY    8.98108732

 Eigenvalues of metric

         1 0.661E-01 0.265E+00 0.423E+00 0.673E+00 0.983E+00 0.100E+01 0.109E+01 0.163E+01
         2 0.498E+00 0.100E+01 0.150E+01
         3 0.121E+00 0.198E+00 0.680E+00 0.115E+01 0.231E+01
         4 0.100E+01


 Contracted 2-electron integrals neglected if value below      1.0D-14
 AO integral compression algorithm  1   Integral accuracy      1.0D-14

     1.835 MB (compressed) written to integral file (100.0%)

     Node minimum: 0.262 MB, node maximum: 0.262 MB


 NUMBER OF SORTED TWO-ELECTRON INTEGRALS:        555.     BUFFER LENGTH:  32768
 NUMBER OF SEGMENTS:   1  SEGMENT LENGTH:        555      RECORD LENGTH: 524288

 Memory used in sort:       0.56 MW

 SORT1 READ        6192. AND WROTE         492. INTEGRALS IN      1 RECORDS. CPU TIME:     0.01 SEC, REAL TIME:     0.01 SEC
 SORT2 READ        3946. AND WROTE        4885. INTEGRALS IN      7 RECORDS. CPU TIME:     0.00 SEC, REAL TIME:     0.00 SEC

 Node minimum:         555.  Node maximum:        1053. integrals

 OPERATOR DM      FOR CENTER  0  COORDINATES:    0.000000    0.000000    0.000000


 **********************************************************************************************************************************
 DATASETS  * FILE   NREC   LENGTH (MB)   RECORD NAMES
              1      18       19.08       500      610      700      900      950      970     1000      129      960     1100   
                                          VAR    BASINP    GEOM    SYMINP    ZMAT    AOBASIS   BASIS     P2S    ABASIS      S 
                                         1400     1410     1200     1210     1080     1600     1650     1700   
                                           T        V       H0       H01     AOSYM     SMH    MOLCAS    OPER   

 PROGRAMS   *        TOTAL       INT
 CPU TIMES  *         0.35      0.24
 REAL TIME  *         0.81 SEC
 DISK USED  *        29.44 MB      
 GA USED    *         0.00 MB       (max)       0.00 MB       (current)
 **********************************************************************************************************************************

1PROGRAM * RHF-SCF (CLOSED SHELL)       Authors: W. Meyer, H.-J. Werner


 NUMBER OF ELECTRONS:       5+    5-
 CONVERGENCE THRESHOLDS:    1.00E-10 (Density)    1.00E-11 (Energy)
 MAX. NUMBER OF ITERATIONS:       60
 INTERPOLATION TYPE:            DIIS
 INTERPOLATION STEPS:              2 (START)      1 (STEP)
 LEVEL SHIFTS:                  0.00 (CLOSED)  0.00 (OPEN) 



 Orbital guess generated from atomic densities. Full valence occupancy:    4   1   2   0

 Molecular orbital dump at record        2100.2

 Initial occupancy:   3   1   1   0

 ITERATION    DDIFF          GRAD             ENERGY        2-EL.EN.            DIPOLE MOMENTS         DIIS   ORB.
    1      0.000D+00      0.000D+00       -75.96614607     77.543964    0.00000    0.00000    1.23340    0    start
    2      0.000D+00      0.443D-01       -75.99729948     74.047311    0.00000    0.00000    0.82709    1    diag
    3      0.439D-01      0.242D-01       -76.00702452     75.479149    0.00000    0.00000    0.90136    2    diag
    4      0.167D-01      0.261D-02       -76.00725328     75.378732    0.00000    0.00000    0.88634    3    diag
    5      0.224D-02      0.685D-03       -76.00727065     75.390674    0.00000    0.00000    0.88146    4    diag
    6      0.826D-03      0.111D-03       -76.00727125     75.390811    0.00000    0.00000    0.88058    5    diag
    7      0.188D-03      0.141D-04       -76.00727126     75.390810    0.00000    0.00000    0.88047    6    diag
    8      0.249D-04      0.159D-05       -76.00727126     75.390798    0.00000    0.00000    0.88046    7    diag
    9      0.232D-05      0.354D-06       -76.00727126     75.390795    0.00000    0.00000    0.88046    8    diag
   10      0.717D-06      0.636D-07       -76.00727126     75.390796    0.00000    0.00000    0.88046    9    orth
   11      0.137D-06      0.820D-08       -76.00727126     75.390796    0.00000    0.00000    0.88046    9    diag
   12      0.210D-07      0.915D-09       -76.00727126     75.390796    0.00000    0.00000    0.88046    9    diag
   13      0.155D-08      0.157D-09       -76.00727126     75.390796    0.00000    0.00000    0.88046    9    diag
   14      0.181D-09      0.112D-10       -76.00727126     75.390796    0.00000    0.00000    0.88046    9    diag
   15      0.131D-10      0.238D-11       -76.00727126     75.390796    0.00000    0.00000    0.88046    0    orth

 Final occupancy:   3   1   1   0

 !RHF STATE 1.1 Energy                -76.007271258314
 Nuclear energy                         8.98108732
 One-electron energy                 -122.68375655
 Two-electron energy                   37.69539798
 Virial quotient                       -1.00156371
 !RHF STATE 1.1 Dipole moment           0.00000000     0.00000000     0.88045902
 Dipole moment /Debye                   0.00000000     0.00000000     2.23775705

 Orbital energies:

         1.1          2.1          3.1          4.1          5.1
    -20.559388    -1.329886    -0.566783     0.209437     1.135543

         1.2          2.2          3.2
     -0.496065     1.168351     2.071525

         1.3          2.3          3.3
     -0.694357     0.298237     1.012491

         1.4
      2.038999

 HOMO      1.2    -0.496065 =     -13.4986eV
 LUMO      4.1     0.209437 =       5.6991eV
 LUMO-HOMO         0.705503 =      19.1977eV


 **********************************************************************************************************************************
 DATASETS  * FILE   NREC   LENGTH (MB)   RECORD NAMES
              1      18       19.08       500      610      700      900      950      970     1000      129      960     1100   
                                          VAR    BASINP    GEOM    SYMINP    ZMAT    AOBASIS   BASIS     P2S    ABASIS      S 
                                         1400     1410     1200     1210     1080     1600     1650     1700   
                                           T        V       H0       H01     AOSYM     SMH    MOLCAS    OPER   

              2       4        0.38       700     1000      520     2100   
                                         GEOM     BASIS   MCVARS     RHF  

 PROGRAMS   *        TOTAL       RHF       INT
 CPU TIMES  *         0.39      0.04      0.24
 REAL TIME  *         0.86 SEC
 DISK USED  *       165.98 MB      
 SF USED    *         0.00 MB      
 GA USED    *         0.00 MB       (max)       0.00 MB       (current)
 **********************************************************************************************************************************


1PROGRAM * CCSD (Closed-shell coupled cluster)     Authors: C. Hampel, H.-J. Werner, 1991, M. Deegan, P.J. Knowles, 1992


 Convergence thresholds:  THRVAR = 1.00D-14  THRDEN = 1.00D-10

 CCSD(T)     terms to be evaluated (factor= 1.000)


 Number of core orbitals:           1 (   1   0   0   0 )
 Number of closed-shell orbitals:   4 (   2   1   1   0 )
 Number of external orbitals:      13 (   6   2   4   1 )

 Molecular orbitals read from record     2100.2  Type=RHF/CANONICAL (state 1.1)

 Number of N-1 electron functions:               4
 Number of N-2 electron functions:              10
 Number of singly external CSFs:                18
 Number of doubly external CSFs:               393
 Total number of CSFs:                         412

 Length of J-op  integral file:               0.00 MB
 Length of K-op  integral file:               0.01 MB
 Length of 3-ext integral record:             0.00 MB

 Memory could be reduced to 0.29 Mwords without degradation in triples

 Integral transformation finished. Total CPU:   0.00 sec, npass=  1  Memory used:   0.07 MW

 Reference energy:                    -76.00727126

 MP2 singlet pair energy:              -0.11495933
 MP2 triplet pair energy:              -0.07149161
 MP2 correlation energy:               -0.18645094
 MP2 total energy:                    -76.19372220

 SCS-MP2 correlation energy:           -0.18243486   (PS=  1.200000  PT=  0.333333)
 SCS-MP2 total energy:                -76.18970612

 ITER.      SQ.NORM     CORR.ENERGY   TOTAL ENERGY   ENERGY CHANGE        DEN1      VAR(S)    VAR(P)  DIIS     TIME  TIME/IT
   1      1.05322818    -0.19455390   -76.20182516    -0.00810295    -0.00457053  0.27D-03  0.75D-03  1  1     0.02     0.20
   2      1.05683055    -0.19565112   -76.20292238    -0.00109723    -0.00404007  0.55D-05  0.59D-04  2  2     0.02     0.12
   3      1.05764124    -0.19574850   -76.20301976    -0.00009738    -0.00058122  0.25D-05  0.25D-05  3  3     0.02     0.08
   4      1.05781085    -0.19574787   -76.20301913     0.00000063    -0.00008915  0.12D-06  0.15D-06  4  4     0.03     0.06
   5      1.05784603    -0.19574653   -76.20301779     0.00000134    -0.00001425  0.39D-07  0.70D-08  5  5     0.03     0.05
   6      1.05785091    -0.19574621   -76.20301747     0.00000032     0.00000046  0.31D-08  0.91D-09  6  6     0.03     0.04
   7      1.05785378    -0.19574612   -76.20301738     0.00000009    -0.00000026  0.11D-09  0.62D-10  6  1     0.03     0.04
   8      1.05785420    -0.19574608   -76.20301734     0.00000004    -0.00000001  0.18D-11  0.48D-11  6  2     0.03     0.03
   9      1.05785430    -0.19574607   -76.20301733     0.00000001    -0.00000005  0.82D-13  0.29D-12  6  3     0.03     0.03
  10      1.05785434    -0.19574607   -76.20301733     0.00000000    -0.00000003  0.34D-14  0.83D-14  6  4     0.03     0.03
  11      1.05785434    -0.19574607   -76.20301733    -0.00000000    -0.00000000  0.23D-15  0.34D-15  6  5     0.03     0.02
  12      1.05785435    -0.19574607   -76.20301733     0.00000000    -0.00000000  0.61D-17  0.25D-16  6  6     0.04     0.02

 Norm of t1 vector:      0.02392241      S-energy:     0.00000000      T1 diagnostic:  0.00598060
                                                                       D1 diagnostic:  0.01087435

 Doubles amplitudes (print threshold =  0.500E-01):

         I         J         SYM. A    SYM. B    A         B      T(IJ, AB)

         3         3         2         2         1         1     -0.05236917


 Total CPU time for triples:      0.00 sec


 RESULTS
 =======

  Reference energy                    -76.007271258314
  CCSD singlet pair energy             -0.132915251161
  CCSD triplet pair energy             -0.062830818664
  CCSD correlation energy              -0.195746069802

  Triples (T) contribution             -0.001834754043
  Total correlation energy             -0.197580823845

  CCSD total energy                   -76.203017328116
  CCSD[T] energy                      -76.204941741119
  CCSD-T energy                       -76.204811760866
 !CCSD(T) total energy                -76.204852082159

 Timing summary (sec):

 STEP                 CPU(USER)    SYS     CPU(TOT)    WALL
 CCSD iterations         0.04      0.02      0.06      0.45

 Program statistics:

 Available memory in ccsd:               999999836
 Min. memory needed in ccsd:                  3277
 Max. memory used in ccsd:                    3491
 Max. memory used in cckext:                 36036 (12 integral passes)



 **********************************************************************************************************************************
 DATASETS  * FILE   NREC   LENGTH (MB)   RECORD NAMES
              1      19       19.10       500      610      700      900      950      970     1000      129      960     1100   
                                          VAR    BASINP    GEOM    SYMINP    ZMAT    AOBASIS   BASIS     P2S    ABASIS      S 
                                         1400     1410     1200     1210     1080     1600     1650     1700     1380   
                                           T        V       H0       H01     AOSYM     SMH    MOLCAS    OPER     JKOP   

              2       4        0.38       700     1000      520     2100   
                                         GEOM     BASIS   MCVARS     RHF  

 PROGRAMS   *        TOTAL   CCSD(T)       RHF       INT
 CPU TIMES  *         0.45      0.06      0.04      0.24
 REAL TIME  *         1.57 SEC
 DISK USED  *       166.05 MB      
 SF USED    *         0.08 MB      
 GA USED    *         0.00 MB       (max)       0.00 MB       (current)
 **********************************************************************************************************************************


 PROGRAM * OPT (Geometry optimization)     Authors: F. Eckert and H.-J. Werner


 BFGS update of hessian

 Running default procedure: RHF-SCF000  CCSD(T)

 Geometry optimization using default procedure for command CCSD(T)

 Geometry written to block  1 of record 700
 

 Number of displacements for numerical gradient:      4

 Starting numerical gradient for CCSD(T)
 Starting task   1 Incrementing variable R1       by   0.00529 ANG to    0.98529 ANG. CPU=    0.00 sec, Elapsed=    0.00 sec


 Recomputing integrals since geometry changed

1PROGRAM * SEWARD (Integral evaluation for generally contracted gaussian basis sets)     Author: Roland Lindh, 1990

 Geometry written to block  1 of record 700

 Orientation using atomic masses  
 Molecule type: Asymmetric top,     Order of principal axis = 2
 Symmetry elements: X,Y
 Rotational constants:     269.5444368    775.7985327    413.0577515 GHz  (calculated with average atomic masses)

 Point group  C2v 



 ATOMIC COORDINATES

 NR  ATOM    CHARGE       X              Y              Z

   1  O       8.00    0.000000000    0.000000000   -0.127553672
   2  H       1.00    0.000000000    1.472209905    1.012353029
   3  H       1.00    0.000000000   -1.472209905    1.012353029

 Bond lengths in Bohr (Angstrom)

 1-2  1.861931602  1-3  1.861931602
     ( 0.985291772)     ( 0.985291772)

 Bond angles

  2-1-3  104.50000000

 NUCLEAR CHARGE:                   10
 NUMBER OF PRIMITIVE AOS:          36
 NUMBER OF SYMMETRY AOS:           35
 NUMBER OF CONTRACTIONS:           18   (   9A1  +   3B1  +   5B2  +   1A2  )
 NUMBER OF CORE ORBITALS:           1   (   1A1  +   0B1  +   0B2  +   0A2  )
 NUMBER OF VALENCE ORBITALS:        6   (   3A1  +   1B1  +   2B2  +   0A2  )


 NUCLEAR REPULSION ENERGY    8.93285199

 Eigenvalues of metric

         1 0.670E-01 0.266E+00 0.423E+00 0.675E+00 0.983E+00 0.100E+01 0.109E+01 0.163E+01
         2 0.498E+00 0.100E+01 0.150E+01
         3 0.122E+00 0.200E+00 0.682E+00 0.115E+01 0.231E+01
         4 0.100E+01


 Contracted 2-electron integrals neglected if value below      1.0D-14
 AO integral compression algorithm  1   Integral accuracy      1.0D-14

     1.835 MB (compressed) written to integral file (100.0%)

     Node minimum: 0.262 MB, node maximum: 0.262 MB


 NUMBER OF SORTED TWO-ELECTRON INTEGRALS:        555.     BUFFER LENGTH:  32768
 NUMBER OF SEGMENTS:   1  SEGMENT LENGTH:        555      RECORD LENGTH: 524288

 Memory used in sort:       0.56 MW

 SORT1 READ        6192. AND WROTE         492. INTEGRALS IN      1 RECORDS. CPU TIME:     0.00 SEC, REAL TIME:     0.01 SEC
 SORT2 READ        3946. AND WROTE        4885. INTEGRALS IN      7 RECORDS. CPU TIME:     0.00 SEC, REAL TIME:     0.00 SEC

 Node minimum:         555.  Node maximum:        1053. integrals

 OPERATOR DM      FOR CENTER  0  COORDINATES:    0.000000    0.000000    0.000000
1PROGRAM * RHF-SCF (CLOSED SHELL)       Authors: W. Meyer, H.-J. Werner


 NUMBER OF ELECTRONS:       5+    5-
 CONVERGENCE THRESHOLDS:    1.00E-10 (Density)    1.00E-11 (Energy)
 MAX. NUMBER OF ITERATIONS:       60
 INTERPOLATION TYPE:            DIIS
 INTERPOLATION STEPS:              2 (START)      1 (STEP)
 LEVEL SHIFTS:                  0.00 (CLOSED)  0.00 (OPEN) 

 Number of closed-shell orbitals:    5 (   3   1   1   0 )


 Molecular orbitals read from record     2100.2  Type=RHF/CANONICAL (state 1.1)

 Molecular orbital dump at record        2100.1

 ITERATION    DDIFF          GRAD             ENERGY        2-EL.EN.            DIPOLE MOMENTS         DIIS   ORB.
    1      0.000D+00      0.000D+00       -76.00655413     75.353304    0.00000    0.00000    0.88600    0    start
    2      0.000D+00      0.843D-03       -76.00657050     75.298364    0.00000    0.00000    0.88318    1    diag
    3      0.769D-03      0.369D-03       -76.00657294     75.320955    0.00000    0.00000    0.88344    2    diag
    4      0.294D-03      0.101D-03       -76.00657332     75.315119    0.00000    0.00000    0.88238    3    diag
    5      0.116D-03      0.236D-04       -76.00657334     75.315448    0.00000    0.00000    0.88217    4    diag
    6      0.388D-04      0.538D-05       -76.00657335     75.315450    0.00000    0.00000    0.88210    5    diag
    7      0.127D-04      0.965D-06       -76.00657335     75.315451    0.00000    0.00000    0.88210    6    diag
    8      0.193D-05      0.133D-06       -76.00657335     75.315450    0.00000    0.00000    0.88210    7    orth
    9      0.227D-06      0.216D-07       -76.00657335     75.315450    0.00000    0.00000    0.88210    8    diag
   10      0.402D-07      0.201D-08       -76.00657335     75.315450    0.00000    0.00000    0.88210    9    diag
   11      0.452D-08      0.143D-09       -76.00657335     75.315450    0.00000    0.00000    0.88210    9    diag
   12      0.190D-09      0.212D-10       -76.00657335     75.315450    0.00000    0.00000    0.88210    9    diag
   13      0.237D-10      0.130D-11       -76.00657335     75.315450    0.00000    0.00000    0.88210    0    orth

 Final occupancy:   3   1   1   0

 !RHF STATE 1.1 Energy                -76.006573346987
 Nuclear energy                         8.93285199
 One-electron energy                 -122.59715016
 Two-electron energy                   37.65772483
 Virial quotient                       -1.00181965
 !RHF STATE 1.1 Dipole moment           0.00000000     0.00000000     0.88210079
 Dipole moment /Debye                   0.00000000     0.00000000     2.24192972

 Orbital energies:

         1.1          2.1          3.1          4.1          5.1
    -20.560438    -1.327323    -0.565806     0.208179     1.129166

         1.2          2.2          3.2
     -0.495735     1.168357     2.072423

         1.3          2.3          3.3
     -0.691547     0.296732     1.010229

         1.4
      2.040245

 HOMO      1.2    -0.495735 =     -13.4896eV
 LUMO      4.1     0.208179 =       5.6649eV
 LUMO-HOMO         0.703915 =      19.1545eV


 **********************************************************************************************************************************
 DATASETS  * FILE   NREC   LENGTH (MB)   RECORD NAMES
              1      19       19.19       500      610      700      900      950      970     1000      129      960     1100   
                                          VAR    BASINP    GEOM    SYMINP    ZMAT    AOBASIS   BASIS     P2S    ABASIS      S 
                                         1400     1410     1200     1210     1080     1600     1650     1700     2100   
                                           T        V       H0       H01     AOSYM     SMH    MOLCAS    OPER      RHF  

              2       5        0.39       700     1000      520     2100     5600   
                                         GEOM     BASIS   MCVARS     RHF     GINFO   

 PROGRAMS   *        TOTAL       RHF   CCSD(T)       RHF       INT
 CPU TIMES  *         0.66      0.21      0.06      0.04      0.24
 REAL TIME  *         1.82 SEC
 DISK USED  *       166.82 MB      
 SF USED    *         0.08 MB      
 GA USED    *         0.00 MB       (max)       0.00 MB       (current)
 **********************************************************************************************************************************


1PROGRAM * CCSD (Closed-shell coupled cluster)     Authors: C. Hampel, H.-J. Werner, 1991, M. Deegan, P.J. Knowles, 1992


 Convergence thresholds:  THRVAR = 1.00D-14  THRDEN = 1.00D-10

 CCSD(T)     terms to be evaluated (factor= 1.000)


 Number of core orbitals:           1 (   1   0   0   0 )
 Number of closed-shell orbitals:   4 (   2   1   1   0 )
 Number of external orbitals:      13 (   6   2   4   1 )

 Molecular orbitals read from record     2100.1  Type=RHF/CANONICAL (state 1.1)

 Number of N-1 electron functions:               4
 Number of N-2 electron functions:              10
 Number of singly external CSFs:                18
 Number of doubly external CSFs:               393
 Total number of CSFs:                         412

 Length of J-op  integral file:               0.00 MB
 Length of K-op  integral file:               0.01 MB
 Length of 3-ext integral record:             0.00 MB

 Memory could be reduced to 0.29 Mwords without degradation in triples

 Integral transformation finished. Total CPU:   0.01 sec, npass=  1  Memory used:   0.07 MW

 Reference energy:                    -76.00657335

 MP2 singlet pair energy:              -0.11527193
 MP2 triplet pair energy:              -0.07161863
 MP2 correlation energy:               -0.18689056
 MP2 total energy:                    -76.19346391

 SCS-MP2 correlation energy:           -0.18288902   (PS=  1.200000  PT=  0.333333)
 SCS-MP2 total energy:                -76.18946237

 ITER.      SQ.NORM     CORR.ENERGY   TOTAL ENERGY   ENERGY CHANGE        DEN1      VAR(S)    VAR(P)  DIIS     TIME  TIME/IT
   1      1.05354548    -0.19499041   -76.20156375    -0.00809985    -0.00452580  0.28D-03  0.76D-03  1  1     0.01     0.00
   2      1.05721875    -0.19610767   -76.20268102    -0.00111727    -0.00408414  0.56D-05  0.61D-04  2  2     0.01     0.00
   3      1.05805999    -0.19620725   -76.20278060    -0.00009958    -0.00059762  0.26D-05  0.26D-05  3  3     0.01     0.00
   4      1.05823765    -0.19620690   -76.20278024     0.00000035    -0.00009218  0.13D-06  0.15D-06  4  4     0.01     0.00
   5      1.05827493    -0.19620552   -76.20277886     0.00000138    -0.00001481  0.42D-07  0.75D-08  5  5     0.02     0.00
   6      1.05828023    -0.19620518   -76.20277853     0.00000034     0.00000044  0.33D-08  0.98D-09  6  6     0.02     0.00
   7      1.05828325    -0.19620508   -76.20277843     0.00000009    -0.00000027  0.12D-09  0.67D-10  6  1     0.02     0.00
   8      1.05828369    -0.19620505   -76.20277839     0.00000004    -0.00000001  0.20D-11  0.53D-11  6  2     0.02     0.00
   9      1.05828379    -0.19620504   -76.20277838     0.00000001    -0.00000005  0.90D-13  0.31D-12  6  3     0.02     0.00
  10      1.05828383    -0.19620503   -76.20277838     0.00000000    -0.00000003  0.39D-14  0.91D-14  6  4     0.02     0.00
  11      1.05828383    -0.19620503   -76.20277838    -0.00000000    -0.00000000  0.26D-15  0.38D-15  6  5     0.02     0.00
  12      1.05828384    -0.19620503   -76.20277838     0.00000000    -0.00000000  0.75D-17  0.28D-16  6  6     0.03     0.00

 Norm of t1 vector:      0.02425092      S-energy:     0.00000000      T1 diagnostic:  0.00606273
                                                                       D1 diagnostic:  0.01108931

 Doubles amplitudes (print threshold =  0.500E-01):

         I         J         SYM. A    SYM. B    A         B      T(IJ, AB)

         3         3         2         2         1         1     -0.05236372

 Total CPU time for triples:      0.00 sec


 RESULTS
 =======

  Reference energy                    -76.006573346987
  CCSD singlet pair energy             -0.133340461392
  CCSD triplet pair energy             -0.062864570922
  CCSD correlation energy              -0.196205032291

  Triples (T) contribution             -0.001859947854
  Total correlation energy             -0.198064980145

  CCSD total energy                   -76.202778379278
  CCSD[T] energy                      -76.204729064539
  CCSD-T energy                       -76.204597478868
 !CCSD(T) total energy                -76.204638327132

 Timing summary (sec):

 STEP                 CPU(USER)    SYS     CPU(TOT)    WALL
 Transformation          0.01      0.00      0.01      0.00
 CCSD iterations         0.02      0.00      0.02      0.03

 Program statistics:

 Available memory in ccsd:               999998800
 Min. memory needed in ccsd:                  3277
 Max. memory used in ccsd:                    3491
 Max. memory used in cckext:                 36036 (12 integral passes)



 **********************************************************************************************************************************
 DATASETS  * FILE   NREC   LENGTH (MB)   RECORD NAMES
              1      20       19.22       500      610      700      900      950      970     1000      129      960     1100   
                                          VAR    BASINP    GEOM    SYMINP    ZMAT    AOBASIS   BASIS     P2S    ABASIS      S 
                                         1400     1410     1200     1210     1080     1600     1650     1700     2100     1380   
                                           T        V       H0       H01     AOSYM     SMH    MOLCAS    OPER      RHF     JKOP   

              2       5        0.39       700     1000      520     2100     5600   
                                         GEOM     BASIS   MCVARS     RHF     GINFO   

 PROGRAMS   *        TOTAL   CCSD(T)   CCSD(T)       RHF       INT
 CPU TIMES  *         0.71      0.05      0.06      0.04      0.24
 REAL TIME  *         1.88 SEC
 DISK USED  *       166.90 MB      
 SF USED    *         0.08 MB      
 GA USED    *         0.00 MB       (max)       0.00 MB       (current)
 **********************************************************************************************************************************
 Starting task   2 Incrementing variable R1       by  -0.00529 ANG to    0.97471 ANG. CPU=    0.30 sec, Elapsed=    0.30 sec


 Recomputing integrals since geometry changed

1PROGRAM * SEWARD (Integral evaluation for generally contracted gaussian basis sets)     Author: Roland Lindh, 1990

 Geometry written to block  1 of record 700

 Orientation using atomic masses  
 Molecule type: Asymmetric top,     Order of principal axis = 2
 Symmetry elements: X,Y
 Rotational constants:     275.4297327    792.7374985    422.0765506 GHz  (calculated with average atomic masses)

 Point group  C2v 



 ATOMIC COORDINATES

 NR  ATOM    CHARGE       X              Y              Z

   1  O       8.00    0.000000000    0.000000000   -0.126183550
   2  H       1.00    0.000000000    1.456396113    1.001478805
   3  H       1.00    0.000000000   -1.456396113    1.001478805

 Bond lengths in Bohr (Angstrom)

 1-2  1.841931602  1-3  1.841931602
     ( 0.974708228)     ( 0.974708228)

 Bond angles

  2-1-3  104.50000000

 NUCLEAR CHARGE:                   10
 NUMBER OF PRIMITIVE AOS:          36
 NUMBER OF SYMMETRY AOS:           35
 NUMBER OF CONTRACTIONS:           18   (   9A1  +   3B1  +   5B2  +   1A2  )
 NUMBER OF CORE ORBITALS:           1   (   1A1  +   0B1  +   0B2  +   0A2  )
 NUMBER OF VALENCE ORBITALS:        6   (   3A1  +   1B1  +   2B2  +   0A2  )


 NUCLEAR REPULSION ENERGY    9.02984639

 Eigenvalues of metric

         1 0.653E-01 0.263E+00 0.423E+00 0.671E+00 0.983E+00 0.100E+01 0.109E+01 0.163E+01
         2 0.498E+00 0.100E+01 0.150E+01
         3 0.119E+00 0.196E+00 0.678E+00 0.115E+01 0.231E+01
         4 0.100E+01


 Contracted 2-electron integrals neglected if value below      1.0D-14
 AO integral compression algorithm  1   Integral accuracy      1.0D-14

     1.835 MB (compressed) written to integral file (100.0%)

     Node minimum: 0.262 MB, node maximum: 0.262 MB


 NUMBER OF SORTED TWO-ELECTRON INTEGRALS:        555.     BUFFER LENGTH:  32768
 NUMBER OF SEGMENTS:   1  SEGMENT LENGTH:        555      RECORD LENGTH: 524288

 Memory used in sort:       0.56 MW

 SORT1 READ        6192. AND WROTE         492. INTEGRALS IN      1 RECORDS. CPU TIME:     0.00 SEC, REAL TIME:     0.01 SEC
 SORT2 READ        3946. AND WROTE        4885. INTEGRALS IN      7 RECORDS. CPU TIME:     0.01 SEC, REAL TIME:     0.01 SEC

 Node minimum:         555.  Node maximum:        1053. integrals

 OPERATOR DM      FOR CENTER  0  COORDINATES:    0.000000    0.000000    0.000000
1PROGRAM * RHF-SCF (CLOSED SHELL)       Authors: W. Meyer, H.-J. Werner


 NUMBER OF ELECTRONS:       5+    5-
 CONVERGENCE THRESHOLDS:    1.00E-10 (Density)    1.00E-11 (Energy)
 MAX. NUMBER OF ITERATIONS:       60
 INTERPOLATION TYPE:            DIIS
 INTERPOLATION STEPS:              2 (START)      1 (STEP)
 LEVEL SHIFTS:                  0.00 (CLOSED)  0.00 (OPEN) 

 Number of closed-shell orbitals:    5 (   3   1   1   0 )


 Molecular orbitals read from record     2100.2  Type=RHF/CANONICAL (state 1.1)

 Molecular orbital dump at record        2100.1

 ITERATION    DDIFF          GRAD             ENERGY        2-EL.EN.            DIPOLE MOMENTS         DIIS   ORB.
    1      0.000D+00      0.000D+00       -76.00785350     75.428632    0.00000    0.00000    0.87493    0    start
    2      0.000D+00      0.852D-03       -76.00787012     75.483865    0.00000    0.00000    0.87769    1    diag
    3      0.775D-03      0.370D-03       -76.00787257     75.461272    0.00000    0.00000    0.87746    2    diag
    4      0.295D-03      0.101D-03       -76.00787295     75.467047    0.00000    0.00000    0.87850    3    diag
    5      0.116D-03      0.233D-04       -76.00787297     75.466724    0.00000    0.00000    0.87871    4    diag
    6      0.387D-04      0.529D-05       -76.00787298     75.466724    0.00000    0.00000    0.87878    5    diag
    7      0.125D-04      0.934D-06       -76.00787298     75.466723    0.00000    0.00000    0.87878    6    diag
    8      0.185D-05      0.127D-06       -76.00787298     75.466725    0.00000    0.00000    0.87878    7    orth
    9      0.214D-06      0.209D-07       -76.00787298     75.466724    0.00000    0.00000    0.87878    8    diag
   10      0.383D-07      0.194D-08       -76.00787298     75.466724    0.00000    0.00000    0.87878    9    diag
   11      0.443D-08      0.144D-09       -76.00787298     75.466724    0.00000    0.00000    0.87878    9    diag
   12      0.192D-09      0.210D-10       -76.00787298     75.466724    0.00000    0.00000    0.87878    9    diag
   13      0.235D-10      0.124D-11       -76.00787298     75.466724    0.00000    0.00000    0.87878    0    orth

 Final occupancy:   3   1   1   0

 !RHF STATE 1.1 Energy                -76.007872975895
 Nuclear energy                         9.02984639
 One-electron energy                 -122.77108156
 Two-electron energy                   37.73336220
 Virial quotient                       -1.00130205
 !RHF STATE 1.1 Dipole moment           0.00000000     0.00000000     0.87877829
 Dipole moment /Debye                   0.00000000     0.00000000     2.23348532

 Orbital energies:

         1.1          2.1          3.1          4.1          5.1
    -20.558334    -1.332488    -0.567762     0.210682     1.142018

         1.2          2.2          3.2
     -0.496405     1.168341     2.070619

         1.3          2.3          3.3
     -0.697189     0.299725     1.014771

         1.4
      2.037744

 HOMO      1.2    -0.496405 =     -13.5079eV
 LUMO      4.1     0.210682 =       5.7330eV
 LUMO-HOMO         0.707087 =      19.2408eV


 **********************************************************************************************************************************
 DATASETS  * FILE   NREC   LENGTH (MB)   RECORD NAMES
              1      19       19.19       500      610      700      900      950      970     1000      129      960     1100   
                                          VAR    BASINP    GEOM    SYMINP    ZMAT    AOBASIS   BASIS     P2S    ABASIS      S 
                                         1400     1410     1200     1210     1080     1600     1650     1700     2100   
                                           T        V       H0       H01     AOSYM     SMH    MOLCAS    OPER      RHF  

              2       5        0.39       700     1000      520     2100     5600   
                                         GEOM     BASIS   MCVARS     RHF     GINFO   

 PROGRAMS   *        TOTAL       RHF   CCSD(T)       RHF       INT
 CPU TIMES  *         0.92      0.21      0.06      0.04      0.24
 REAL TIME  *         2.12 SEC
 DISK USED  *       167.00 MB      
 SF USED    *         0.08 MB      
 GA USED    *         0.00 MB       (max)       0.00 MB       (current)
 **********************************************************************************************************************************


1PROGRAM * CCSD (Closed-shell coupled cluster)     Authors: C. Hampel, H.-J. Werner, 1991, M. Deegan, P.J. Knowles, 1992


 Convergence thresholds:  THRVAR = 1.00D-14  THRDEN = 1.00D-10

 CCSD(T)     terms to be evaluated (factor= 1.000)


 Number of core orbitals:           1 (   1   0   0   0 )
 Number of closed-shell orbitals:   4 (   2   1   1   0 )
 Number of external orbitals:      13 (   6   2   4   1 )

 Molecular orbitals read from record     2100.1  Type=RHF/CANONICAL (state 1.1)

 Number of N-1 electron functions:               4
 Number of N-2 electron functions:              10
 Number of singly external CSFs:                18
 Number of doubly external CSFs:               393
 Total number of CSFs:                         412

 Length of J-op  integral file:               0.00 MB
 Length of K-op  integral file:               0.01 MB
 Length of 3-ext integral record:             0.00 MB

 Memory could be reduced to 0.29 Mwords without degradation in triples

 Integral transformation finished. Total CPU:   0.01 sec, npass=  1  Memory used:   0.07 MW

 Reference energy:                    -76.00787298

 MP2 singlet pair energy:              -0.11464769
 MP2 triplet pair energy:              -0.07136412
 MP2 correlation energy:               -0.18601182
 MP2 total energy:                    -76.19388479

 SCS-MP2 correlation energy:           -0.18198157   (PS=  1.200000  PT=  0.333333)
 SCS-MP2 total energy:                -76.18985455

 ITER.      SQ.NORM     CORR.ENERGY   TOTAL ENERGY   ENERGY CHANGE        DEN1      VAR(S)    VAR(P)  DIIS     TIME  TIME/IT
   1      1.05291416    -0.19411803   -76.20199101    -0.00810622    -0.00461463  0.27D-03  0.74D-03  1  1     0.01     0.00
   2      1.05644726    -0.19519555   -76.20306852    -0.00107752    -0.00399659  0.55D-05  0.57D-04  2  2     0.01     0.00
   3      1.05722861    -0.19529084   -76.20316381    -0.00009529    -0.00056532  0.24D-05  0.24D-05  3  3     0.01     0.00
   4      1.05739057    -0.19528994   -76.20316292     0.00000089    -0.00008625  0.11D-06  0.14D-06  4  4     0.01     0.00
   5      1.05742375    -0.19528864   -76.20316162     0.00000130    -0.00001371  0.36D-07  0.65D-08  5  5     0.01     0.00
   6      1.05742823    -0.19528834   -76.20316132     0.00000030     0.00000046  0.30D-08  0.85D-09  6  6     0.02     0.00
   7      1.05743096    -0.19528825   -76.20316122     0.00000009    -0.00000026  0.11D-09  0.58D-10  6  1     0.02     0.00
   8      1.05743138    -0.19528821   -76.20316119     0.00000003    -0.00000002  0.16D-11  0.44D-11  6  2     0.02     0.00
   9      1.05743146    -0.19528820   -76.20316118     0.00000001    -0.00000005  0.75D-13  0.26D-12  6  3     0.02     0.00
  10      1.05743150    -0.19528820   -76.20316118     0.00000000    -0.00000003  0.31D-14  0.75D-14  6  4     0.02     0.00
  11      1.05743151    -0.19528820   -76.20316118     0.00000000    -0.00000000  0.20D-15  0.31D-15  6  5     0.02     0.00
  12      1.05743151    -0.19528820   -76.20316118     0.00000000    -0.00000000  0.49D-17  0.22D-16  6  6     0.02     0.00

 Norm of t1 vector:      0.02360201      S-energy:     0.00000000      T1 diagnostic:  0.00590050
                                                                       D1 diagnostic:  0.01066406

 Doubles amplitudes (print threshold =  0.500E-01):

         I         J         SYM. A    SYM. B    A         B      T(IJ, AB)

         3         3         2         2         1         1     -0.05237438

 Total CPU time for triples:      0.00 sec


 RESULTS
 =======

  Reference energy                    -76.007872975894
  CCSD singlet pair energy             -0.132492351585
  CCSD triplet pair energy             -0.062795848237
  CCSD correlation energy              -0.195288199798

  Triples (T) contribution             -0.001810085539
  Total correlation energy             -0.197098285337

  CCSD total energy                   -76.203161175692
  CCSD[T] energy                      -76.205059900187
  CCSD-T energy                       -76.204931439742
 !CCSD(T) total energy                -76.204971261231

 Timing summary (sec):

 STEP                 CPU(USER)    SYS     CPU(TOT)    WALL
 Transformation          0.01      0.00      0.01      0.00
 CCSD iterations         0.01      0.01      0.02      0.02

 Program statistics:

 Available memory in ccsd:               999998800
 Min. memory needed in ccsd:                  3277
 Max. memory used in ccsd:                    3491
 Max. memory used in cckext:                 36036 (12 integral passes)



 **********************************************************************************************************************************
 DATASETS  * FILE   NREC   LENGTH (MB)   RECORD NAMES
              1      20       19.22       500      610      700      900      950      970     1000      129      960     1100   
                                          VAR    BASINP    GEOM    SYMINP    ZMAT    AOBASIS   BASIS     P2S    ABASIS      S 
                                         1400     1410     1200     1210     1080     1600     1650     1700     2100     1380   
                                           T        V       H0       H01     AOSYM     SMH    MOLCAS    OPER      RHF     JKOP   

              2       5        0.39       700     1000      520     2100     5600   
                                         GEOM     BASIS   MCVARS     RHF     GINFO   

 PROGRAMS   *        TOTAL   CCSD(T)   CCSD(T)       RHF       INT
 CPU TIMES  *         0.97      0.05      0.06      0.04      0.24
 REAL TIME  *         2.18 SEC
 DISK USED  *       167.00 MB      
 SF USED    *         0.08 MB      
 GA USED    *         0.00 MB       (max)       0.00 MB       (current)
 **********************************************************************************************************************************
 Starting task   3 Incrementing variable A1       by   1.00000 DEG to  105.50000 DEG. CPU=    0.61 sec, Elapsed=    0.60 sec


 Recomputing integrals since geometry changed

1PROGRAM * SEWARD (Integral evaluation for generally contracted gaussian basis sets)     Author: Roland Lindh, 1990

 Geometry written to block  1 of record 700

 Orientation using atomic masses  
 Molecule type: Asymmetric top,     Order of principal axis = 2
 Symmetry elements: X,Y
 Rotational constants:     272.1952736    802.2411984    411.9761181 GHz  (calculated with average atomic masses)

 Point group  C2v 



 ATOMIC COORDINATES

 NR  ATOM    CHARGE       X              Y              Z

   1  O       8.00    0.000000000    0.000000000   -0.125433911
   2  H       1.00    0.000000000    1.474141264    0.995529154
   3  H       1.00    0.000000000   -1.474141264    0.995529154

 Bond lengths in Bohr (Angstrom)

 1-2  1.851931602  1-3  1.851931602
     ( 0.980000000)     ( 0.980000000)

 Bond angles

  2-1-3  105.50000000

 NUCLEAR CHARGE:                   10
 NUMBER OF PRIMITIVE AOS:          36
 NUMBER OF SYMMETRY AOS:           35
 NUMBER OF CONTRACTIONS:           18   (   9A1  +   3B1  +   5B2  +   1A2  )
 NUMBER OF CORE ORBITALS:           1   (   1A1  +   0B1  +   0B2  +   0A2  )
 NUMBER OF VALENCE ORBITALS:        6   (   3A1  +   1B1  +   2B2  +   0A2  )


 NUCLEAR REPULSION ENERGY    8.97880845

 Eigenvalues of metric

         1 0.664E-01 0.265E+00 0.423E+00 0.672E+00 0.983E+00 0.100E+01 0.109E+01 0.163E+01
         2 0.498E+00 0.100E+01 0.150E+01
         3 0.120E+00 0.198E+00 0.681E+00 0.115E+01 0.231E+01
         4 0.100E+01


 Contracted 2-electron integrals neglected if value below      1.0D-14
 AO integral compression algorithm  1   Integral accuracy      1.0D-14

     1.835 MB (compressed) written to integral file (100.0%)

     Node minimum: 0.262 MB, node maximum: 0.262 MB


 NUMBER OF SORTED TWO-ELECTRON INTEGRALS:        555.     BUFFER LENGTH:  32768
 NUMBER OF SEGMENTS:   1  SEGMENT LENGTH:        555      RECORD LENGTH: 524288

 Memory used in sort:       0.56 MW

 SORT1 READ        6192. AND WROTE         492. INTEGRALS IN      1 RECORDS. CPU TIME:     0.01 SEC, REAL TIME:     0.01 SEC
 SORT2 READ        3946. AND WROTE        4885. INTEGRALS IN      7 RECORDS. CPU TIME:     0.00 SEC, REAL TIME:     0.01 SEC

 Node minimum:         555.  Node maximum:        1053. integrals

 OPERATOR DM      FOR CENTER  0  COORDINATES:    0.000000    0.000000    0.000000
1PROGRAM * RHF-SCF (CLOSED SHELL)       Authors: W. Meyer, H.-J. Werner


 NUMBER OF ELECTRONS:       5+    5-
 CONVERGENCE THRESHOLDS:    1.00E-10 (Density)    1.00E-11 (Energy)
 MAX. NUMBER OF ITERATIONS:       60
 INTERPOLATION TYPE:            DIIS
 INTERPOLATION STEPS:              2 (START)      1 (STEP)
 LEVEL SHIFTS:                  0.00 (CLOSED)  0.00 (OPEN) 

 Number of closed-shell orbitals:    5 (   3   1   1   0 )


 Molecular orbitals read from record     2100.2  Type=RHF/CANONICAL (state 1.1)

 Molecular orbital dump at record        2100.1

 ITERATION    DDIFF          GRAD             ENERGY        2-EL.EN.            DIPOLE MOMENTS         DIIS   ORB.
    1      0.000D+00      0.000D+00       -76.00723521     75.391221    0.00000    0.00000    0.86944    0    start
    2      0.000D+00      0.607D-03       -76.00724428     75.395983    0.00000    0.00000    0.87279    1    diag
    3      0.487D-03      0.124D-03       -76.00724482     75.393106    0.00000    0.00000    0.87298    2    diag
    4      0.138D-03      0.348D-04       -76.00724486     75.395476    0.00000    0.00000    0.87334    3    diag
    5      0.443D-04      0.164D-04       -76.00724487     75.394777    0.00000    0.00000    0.87339    4    diag
    6      0.164D-04      0.379D-05       -76.00724487     75.394850    0.00000    0.00000    0.87344    5    diag
    7      0.932D-05      0.655D-06       -76.00724487     75.394847    0.00000    0.00000    0.87344    6    diag
    8      0.158D-05      0.916D-07       -76.00724487     75.394848    0.00000    0.00000    0.87344    7    orth
    9      0.132D-06      0.111D-07       -76.00724487     75.394848    0.00000    0.00000    0.87344    8    diag
   10      0.170D-07      0.163D-08       -76.00724487     75.394848    0.00000    0.00000    0.87344    9    diag
   11      0.326D-08      0.107D-09       -76.00724487     75.394848    0.00000    0.00000    0.87344    9    diag
   12      0.202D-09      0.141D-10       -76.00724487     75.394848    0.00000    0.00000    0.87344    9    diag
   13      0.203D-10      0.104D-11       -76.00724487     75.394848    0.00000    0.00000    0.87344    0    orth

 Final occupancy:   3   1   1   0

 !RHF STATE 1.1 Energy                -76.007244871876
 Nuclear energy                         8.97880845
 One-electron energy                 -122.68347749
 Two-electron energy                   37.69742417
 Virial quotient                       -1.00158172
 !RHF STATE 1.1 Dipole moment           0.00000000     0.00000000     0.87344162
 Dipole moment /Debye                   0.00000000     0.00000000     2.21992176

 Orbital energies:

         1.1          2.1          3.1          4.1          5.1
    -20.558769    -1.329058    -0.564739     0.209531     1.129875

         1.2          2.2          3.2
     -0.495638     1.168655     2.072679

         1.3          2.3          3.3
     -0.696110     0.298396     1.016968

         1.4
      2.038267

 HOMO      1.2    -0.495638 =     -13.4870eV
 LUMO      4.1     0.209531 =       5.7016eV
 LUMO-HOMO         0.705169 =      19.1886eV


 **********************************************************************************************************************************
 DATASETS  * FILE   NREC   LENGTH (MB)   RECORD NAMES
              1      19       19.19       500      610      700      900      950      970     1000      129      960     1100   
                                          VAR    BASINP    GEOM    SYMINP    ZMAT    AOBASIS   BASIS     P2S    ABASIS      S 
                                         1400     1410     1200     1210     1080     1600     1650     1700     2100   
                                           T        V       H0       H01     AOSYM     SMH    MOLCAS    OPER      RHF  

              2       5        0.39       700     1000      520     2100     5600   
                                         GEOM     BASIS   MCVARS     RHF     GINFO   

 PROGRAMS   *        TOTAL       RHF   CCSD(T)       RHF       INT
 CPU TIMES  *         1.18      0.21      0.06      0.04      0.24
 REAL TIME  *         2.42 SEC
 DISK USED  *       167.00 MB      
 SF USED    *         0.08 MB      
 GA USED    *         0.00 MB       (max)       0.00 MB       (current)
 **********************************************************************************************************************************


1PROGRAM * CCSD (Closed-shell coupled cluster)     Authors: C. Hampel, H.-J. Werner, 1991, M. Deegan, P.J. Knowles, 1992


 Convergence thresholds:  THRVAR = 1.00D-14  THRDEN = 1.00D-10

 CCSD(T)     terms to be evaluated (factor= 1.000)


 Number of core orbitals:           1 (   1   0   0   0 )
 Number of closed-shell orbitals:   4 (   2   1   1   0 )
 Number of external orbitals:      13 (   6   2   4   1 )

 Molecular orbitals read from record     2100.1  Type=RHF/CANONICAL (state 1.1)

 Number of N-1 electron functions:               4
 Number of N-2 electron functions:              10
 Number of singly external CSFs:                18
 Number of doubly external CSFs:               393
 Total number of CSFs:                         412

 Length of J-op  integral file:               0.00 MB
 Length of K-op  integral file:               0.01 MB
 Length of 3-ext integral record:             0.00 MB

 Memory could be reduced to 0.29 Mwords without degradation in triples

 Integral transformation finished. Total CPU:   0.01 sec, npass=  1  Memory used:   0.07 MW

 Reference energy:                    -76.00724487

 MP2 singlet pair energy:              -0.11492545
 MP2 triplet pair energy:              -0.07147920
 MP2 correlation energy:               -0.18640464
 MP2 total energy:                    -76.19364951

 SCS-MP2 correlation energy:           -0.18238648   (PS=  1.200000  PT=  0.333333)
 SCS-MP2 total energy:                -76.18963135

 ITER.      SQ.NORM     CORR.ENERGY   TOTAL ENERGY   ENERGY CHANGE        DEN1      VAR(S)    VAR(P)  DIIS     TIME  TIME/IT
   1      1.05319471    -0.19451339   -76.20175826    -0.00810875    -0.00458195  0.27D-03  0.75D-03  1  1     0.01     0.00
   2      1.05679013    -0.19560923   -76.20285411    -0.00109584    -0.00403507  0.56D-05  0.59D-04  2  2     0.01     0.00
   3      1.05759773    -0.19570651   -76.20295138    -0.00009727    -0.00057935  0.25D-05  0.25D-05  3  3     0.01     0.00
   4      1.05776693    -0.19570585   -76.20295073     0.00000065    -0.00008888  0.12D-06  0.14D-06  4  4     0.01     0.00
   5      1.05780233    -0.19570452   -76.20294939     0.00000133    -0.00001427  0.40D-07  0.71D-08  5  5     0.01     0.00
   6      1.05780732    -0.19570420   -76.20294907     0.00000032     0.00000046  0.32D-08  0.93D-09  6  6     0.01     0.00
   7      1.05781024    -0.19570411   -76.20294898     0.00000009    -0.00000027  0.12D-09  0.64D-10  6  1     0.02     0.00
   8      1.05781068    -0.19570407   -76.20294894     0.00000004    -0.00000002  0.17D-11  0.49D-11  6  2     0.02     0.00
   9      1.05781077    -0.19570406   -76.20294893     0.00000001    -0.00000005  0.81D-13  0.29D-12  6  3     0.02     0.00
  10      1.05781082    -0.19570406   -76.20294893     0.00000000    -0.00000003  0.35D-14  0.84D-14  6  4     0.02     0.00
  11      1.05781082    -0.19570406   -76.20294893     0.00000000    -0.00000000  0.23D-15  0.35D-15  6  5     0.02     0.00
  12      1.05781082    -0.19570406   -76.20294893     0.00000000    -0.00000000  0.67D-17  0.25D-16  6  6     0.02     0.00

 Norm of t1 vector:      0.02389090      S-energy:     0.00000000      T1 diagnostic:  0.00597272
                                                                       D1 diagnostic:  0.01090265

 Doubles amplitudes (print threshold =  0.500E-01):

         I         J         SYM. A    SYM. B    A         B      T(IJ, AB)

         3         3         2         2         1         1     -0.05237717

 Total CPU time for triples:      0.00 sec


 RESULTS
 =======

  Reference energy                    -76.007244871876
  CCSD singlet pair energy             -0.132873383216
  CCSD triplet pair energy             -0.062830674084
  CCSD correlation energy              -0.195704057277

  Triples (T) contribution             -0.001830195555
  Total correlation energy             -0.197534252832

  CCSD total energy                   -76.202948929153
  CCSD[T] energy                      -76.204868637489
  CCSD-T energy                       -76.204738906573
 !CCSD(T) total energy                -76.204779124708

 Timing summary (sec):

 STEP                 CPU(USER)    SYS     CPU(TOT)    WALL
 Transformation          0.01      0.00      0.01      0.00
 CCSD iterations         0.01      0.01      0.02      0.03

 Program statistics:

 Available memory in ccsd:               999998800
 Min. memory needed in ccsd:                  3277
 Max. memory used in ccsd:                    3491
 Max. memory used in cckext:                 36036 (12 integral passes)



 **********************************************************************************************************************************
 DATASETS  * FILE   NREC   LENGTH (MB)   RECORD NAMES
              1      20       19.22       500      610      700      900      950      970     1000      129      960     1100   
                                          VAR    BASINP    GEOM    SYMINP    ZMAT    AOBASIS   BASIS     P2S    ABASIS      S 
                                         1400     1410     1200     1210     1080     1600     1650     1700     2100     1380   
                                           T        V       H0       H01     AOSYM     SMH    MOLCAS    OPER      RHF     JKOP   

              2       5        0.39       700     1000      520     2100     5600   
                                         GEOM     BASIS   MCVARS     RHF     GINFO   

 PROGRAMS   *        TOTAL   CCSD(T)   CCSD(T)       RHF       INT
 CPU TIMES  *         1.23      0.05      0.06      0.04      0.24
 REAL TIME  *         2.48 SEC
 DISK USED  *       167.00 MB      
 SF USED    *         0.08 MB      
 GA USED    *         0.00 MB       (max)       0.00 MB       (current)
 **********************************************************************************************************************************
 Starting task   4 Incrementing variable A1       by  -1.00000 DEG to  103.50000 DEG. CPU=    0.91 sec, Elapsed=    0.90 sec


 Recomputing integrals since geometry changed

1PROGRAM * SEWARD (Integral evaluation for generally contracted gaussian basis sets)     Author: Roland Lindh, 1990

 Geometry written to block  1 of record 700

 Orientation using atomic masses  
 Molecule type: Asymmetric top,     Order of principal axis = 2
 Symmetry elements: X,Y
 Rotational constants:     272.7329716    766.8749697    423.2631312 GHz  (calculated with average atomic masses)

 Point group  C2v 



 ATOMIC COORDINATES

 NR  ATOM    CHARGE       X              Y              Z

   1  O       8.00    0.000000000    0.000000000   -0.128293650
   2  H       1.00    0.000000000    1.454353242    1.018225999
   3  H       1.00    0.000000000   -1.454353242    1.018225999

 Bond lengths in Bohr (Angstrom)

 1-2  1.851931602  1-3  1.851931602
     ( 0.980000000)     ( 0.980000000)

 Bond angles

  2-1-3  103.50000000

 NUCLEAR CHARGE:                   10
 NUMBER OF PRIMITIVE AOS:          36
 NUMBER OF SYMMETRY AOS:           35
 NUMBER OF CONTRACTIONS:           18   (   9A1  +   3B1  +   5B2  +   1A2  )
 NUMBER OF CORE ORBITALS:           1   (   1A1  +   0B1  +   0B2  +   0A2  )
 NUMBER OF VALENCE ORBITALS:        6   (   3A1  +   1B1  +   2B2  +   0A2  )


 NUCLEAR REPULSION ENERGY    8.98342336

 Eigenvalues of metric

         1 0.659E-01 0.264E+00 0.422E+00 0.674E+00 0.983E+00 0.100E+01 0.109E+01 0.163E+01
         2 0.498E+00 0.100E+01 0.150E+01
         3 0.121E+00 0.199E+00 0.678E+00 0.115E+01 0.230E+01
         4 0.100E+01


 Contracted 2-electron integrals neglected if value below      1.0D-14
 AO integral compression algorithm  1   Integral accuracy      1.0D-14

     1.835 MB (compressed) written to integral file (100.0%)

     Node minimum: 0.262 MB, node maximum: 0.262 MB


 NUMBER OF SORTED TWO-ELECTRON INTEGRALS:        555.     BUFFER LENGTH:  32768
 NUMBER OF SEGMENTS:   1  SEGMENT LENGTH:        555      RECORD LENGTH: 524288

 Memory used in sort:       0.56 MW

 SORT1 READ        6192. AND WROTE         492. INTEGRALS IN      1 RECORDS. CPU TIME:     0.01 SEC, REAL TIME:     0.01 SEC
 SORT2 READ        3946. AND WROTE        4885. INTEGRALS IN      7 RECORDS. CPU TIME:     0.00 SEC, REAL TIME:     0.01 SEC

 Node minimum:         555.  Node maximum:        1053. integrals

 OPERATOR DM      FOR CENTER  0  COORDINATES:    0.000000    0.000000    0.000000
1PROGRAM * RHF-SCF (CLOSED SHELL)       Authors: W. Meyer, H.-J. Werner


 NUMBER OF ELECTRONS:       5+    5-
 CONVERGENCE THRESHOLDS:    1.00E-10 (Density)    1.00E-11 (Energy)
 MAX. NUMBER OF ITERATIONS:       60
 INTERPOLATION TYPE:            DIIS
 INTERPOLATION STEPS:              2 (START)      1 (STEP)
 LEVEL SHIFTS:                  0.00 (CLOSED)  0.00 (OPEN) 

 Number of closed-shell orbitals:    5 (   3   1   1   0 )


 Molecular orbitals read from record     2100.2  Type=RHF/CANONICAL (state 1.1)

 Molecular orbital dump at record        2100.1

 ITERATION    DDIFF          GRAD             ENERGY        2-EL.EN.            DIPOLE MOMENTS         DIIS   ORB.
    1      0.000D+00      0.000D+00       -76.00722966     75.390741    0.00000    0.00000    0.89145    0    start
    2      0.000D+00      0.609D-03       -76.00723880     75.385520    0.00000    0.00000    0.88804    1    diag
    3      0.492D-03      0.125D-03       -76.00723933     75.388762    0.00000    0.00000    0.88788    2    diag
    4      0.138D-03      0.366D-04       -76.00723938     75.386237    0.00000    0.00000    0.88752    3    diag
    5      0.443D-04      0.166D-04       -76.00723938     75.386940    0.00000    0.00000    0.88746    4    diag
    6      0.165D-04      0.378D-05       -76.00723939     75.386876    0.00000    0.00000    0.88742    5    diag
    7      0.915D-05      0.650D-06       -76.00723939     75.386878    0.00000    0.00000    0.88741    6    diag
    8      0.156D-05      0.897D-07       -76.00723939     75.386878    0.00000    0.00000    0.88741    7    orth
    9      0.129D-06      0.111D-07       -76.00723939     75.386878    0.00000    0.00000    0.88741    8    diag
   10      0.173D-07      0.160D-08       -76.00723939     75.386878    0.00000    0.00000    0.88741    9    diag
   11      0.321D-08      0.103D-09       -76.00723939     75.386878    0.00000    0.00000    0.88741    9    diag
   12      0.193D-09      0.142D-10       -76.00723939     75.386878    0.00000    0.00000    0.88741    9    diag
   13      0.196D-10      0.969D-12       -76.00723939     75.386878    0.00000    0.00000    0.88741    0    orth

 Final occupancy:   3   1   1   0

 !RHF STATE 1.1 Energy                -76.007239385316
 Nuclear energy                         8.98342336
 One-electron energy                 -122.68410152
 Two-electron energy                   37.69343877
 Virial quotient                       -1.00154486
 !RHF STATE 1.1 Dipole moment           0.00000000     0.00000000     0.88741212
 Dipole moment /Debye                   0.00000000     0.00000000     2.25542889

 Orbital energies:

         1.1          2.1          3.1          4.1          5.1
    -20.559997    -1.330721    -0.568831     0.209318     1.141011

         1.2          2.2          3.2
     -0.496487     1.168050     2.070370

         1.3          2.3          3.3
     -0.692576     0.298075     1.008146

         1.4
      2.039738

 HOMO      1.2    -0.496487 =     -13.5101eV
 LUMO      4.1     0.209318 =       5.6958eV
 LUMO-HOMO         0.705805 =      19.2059eV


 **********************************************************************************************************************************
 DATASETS  * FILE   NREC   LENGTH (MB)   RECORD NAMES
              1      19       19.19       500      610      700      900      950      970     1000      129      960     1100   
                                          VAR    BASINP    GEOM    SYMINP    ZMAT    AOBASIS   BASIS     P2S    ABASIS      S 
                                         1400     1410     1200     1210     1080     1600     1650     1700     2100   
                                           T        V       H0       H01     AOSYM     SMH    MOLCAS    OPER      RHF  

              2       5        0.39       700     1000      520     2100     5600   
                                         GEOM     BASIS   MCVARS     RHF     GINFO   

 PROGRAMS   *        TOTAL       RHF   CCSD(T)       RHF       INT
 CPU TIMES  *         1.44      0.21      0.06      0.04      0.24
 REAL TIME  *         2.72 SEC
 DISK USED  *       167.00 MB      
 SF USED    *         0.08 MB      
 GA USED    *         0.00 MB       (max)       0.00 MB       (current)
 **********************************************************************************************************************************


1PROGRAM * CCSD (Closed-shell coupled cluster)     Authors: C. Hampel, H.-J. Werner, 1991, M. Deegan, P.J. Knowles, 1992


 Convergence thresholds:  THRVAR = 1.00D-14  THRDEN = 1.00D-10

 CCSD(T)     terms to be evaluated (factor= 1.000)


 Number of core orbitals:           1 (   1   0   0   0 )
 Number of closed-shell orbitals:   4 (   2   1   1   0 )
 Number of external orbitals:      13 (   6   2   4   1 )

 Molecular orbitals read from record     2100.1  Type=RHF/CANONICAL (state 1.1)

 Number of N-1 electron functions:               4
 Number of N-2 electron functions:              10
 Number of singly external CSFs:                18
 Number of doubly external CSFs:               393
 Total number of CSFs:                         412

 Length of J-op  integral file:               0.00 MB
 Length of K-op  integral file:               0.01 MB
 Length of 3-ext integral record:             0.00 MB

 Memory could be reduced to 0.29 Mwords without degradation in triples

 Integral transformation finished. Total CPU:   0.01 sec, npass=  1  Memory used:   0.07 MW

 Reference energy:                    -76.00723939

 MP2 singlet pair energy:              -0.11499472
 MP2 triplet pair energy:              -0.07150606
 MP2 correlation energy:               -0.18650078
 MP2 total energy:                    -76.19374017

 SCS-MP2 correlation energy:           -0.18248633   (PS=  1.200000  PT=  0.333333)
 SCS-MP2 total energy:                -76.18972571

 ITER.      SQ.NORM     CORR.ENERGY   TOTAL ENERGY   ENERGY CHANGE        DEN1      VAR(S)    VAR(P)  DIIS     TIME  TIME/IT
   1      1.05326294    -0.19459714   -76.20183652    -0.00809635    -0.00455827  0.27D-03  0.75D-03  1  1     0.01     0.00
   2      1.05687237    -0.19569573   -76.20293511    -0.00109859    -0.00404503  0.55D-05  0.60D-04  2  2     0.01     0.00
   3      1.05768626    -0.19579322   -76.20303261    -0.00009750    -0.00058314  0.25D-05  0.25D-05  3  3     0.01     0.00
   4      1.05785633    -0.19579262   -76.20303200     0.00000061    -0.00008944  0.11D-06  0.15D-06  4  4     0.01     0.00
   5      1.05789130    -0.19579127   -76.20303066     0.00000135    -0.00001423  0.38D-07  0.69D-08  5  5     0.01     0.00
   6      1.05789606    -0.19579095   -76.20303034     0.00000032     0.00000045  0.31D-08  0.89D-09  6  6     0.02     0.00
   7      1.05789888    -0.19579086   -76.20303024     0.00000009    -0.00000026  0.11D-09  0.61D-10  6  1     0.02     0.00
   8      1.05789930    -0.19579082   -76.20303021     0.00000003    -0.00000001  0.19D-11  0.47D-11  6  2     0.02     0.00
   9      1.05789939    -0.19579081   -76.20303020     0.00000001    -0.00000005  0.83D-13  0.28D-12  6  3     0.02     0.00
  10      1.05789944    -0.19579081   -76.20303019     0.00000000    -0.00000003  0.34D-14  0.81D-14  6  4     0.02     0.00
  11      1.05789944    -0.19579081   -76.20303019    -0.00000000    -0.00000000  0.22D-15  0.34D-15  6  5     0.02     0.00
  12      1.05789944    -0.19579081   -76.20303019     0.00000000    -0.00000000  0.55D-17  0.24D-16  6  6     0.02     0.00

 Norm of t1 vector:      0.02395587      S-energy:     0.00000000      T1 diagnostic:  0.00598897
                                                                       D1 diagnostic:  0.01084686

 Doubles amplitudes (print threshold =  0.500E-01):

         I         J         SYM. A    SYM. B    A         B      T(IJ, AB)

         3         3         2         2         1         1     -0.05236125

 Total CPU time for triples:      0.01 sec


 RESULTS
 =======

  Reference energy                    -76.007239385316
  CCSD singlet pair energy             -0.132958414435
  CCSD triplet pair energy             -0.062832393126
  CCSD correlation energy              -0.195790807538

  Triples (T) contribution             -0.001839432884
  Total correlation energy             -0.197630240422

  CCSD total energy                   -76.203030192854
  CCSD[T] energy                      -76.204959446690
  CCSD-T energy                       -76.204829190961
 !CCSD(T) total energy                -76.204869625738

 Timing summary (sec):

 STEP                 CPU(USER)    SYS     CPU(TOT)    WALL
 Transformation          0.01      0.00      0.01      0.00
 CCSD iterations         0.01      0.01      0.02      0.03
 Triples                 0.01      0.00      0.01      0.00

 Program statistics:

 Available memory in ccsd:               999998800
 Min. memory needed in ccsd:                  3277
 Max. memory used in ccsd:                    3491
 Max. memory used in cckext:                 36036 (12 integral passes)



 **********************************************************************************************************************************
 DATASETS  * FILE   NREC   LENGTH (MB)   RECORD NAMES
              1      20       19.22       500      610      700      900      950      970     1000      129      960     1100   
                                          VAR    BASINP    GEOM    SYMINP    ZMAT    AOBASIS   BASIS     P2S    ABASIS      S 
                                         1400     1410     1200     1210     1080     1600     1650     1700     2100     1380   
                                           T        V       H0       H01     AOSYM     SMH    MOLCAS    OPER      RHF     JKOP   

              2       5        0.39       700     1000      520     2100     5600   
                                         GEOM     BASIS   MCVARS     RHF     GINFO   

 PROGRAMS   *        TOTAL   CCSD(T)   CCSD(T)       RHF       INT
 CPU TIMES  *         1.49      0.05      0.06      0.04      0.24
 REAL TIME  *         2.78 SEC
 DISK USED  *       167.00 MB      
 SF USED    *         0.08 MB      
 GA USED    *         0.00 MB       (max)       0.00 MB       (current)
 **********************************************************************************************************************************
 Numerical gradient completed. CPU-time:     1.21 sec, Elapsed:     1.20 sec

 Numerical gradient for CCSD(T)

 Total Energy           -76.20485208  Dipole moments:    0.000000    0.000000    0.000000

 Variable       Value            Gradient       Hessian                Dipole gradient
 R1             0.980 ANG      0.03145771     3.37736865      0.000000    0.000000    0.000000

 Variable       Value            Gradient       Hessian                Dipole gradient
 A1           104.500 DEG      0.00004525     0.00005541      0.000000    0.000000    0.000000
 Reading points  1 to  1 from record 700.2,  wavefunction type=CCSD(T)         

 Making model hessian for Z-matrix coordinates
 No hessian update for point  1

 Entering Rational Function Geometry Optimization

 Optimization point 1

 Variable                      Last           Current        Next           Gradient       Hessian

 E(CCSD(T)) / Hartree        0.00000000   -76.20485208   -76.20497181
 R1 / ANGSTROM               0.00000000     0.98000000     0.97336631     0.03145771     4.73808314
 A1 / DEGREE                 0.00000000   104.50000000   103.82138040     0.00004525     0.00006630
 Convergence:                0.00000000  (line search)     0.01724621     0.01684739  (total)

 Geometry written to block  2 of record 700


 Recomputing integrals since geometry changed

1PROGRAM * SEWARD (Integral evaluation for generally contracted gaussian basis sets)     Author: Roland Lindh, 1990

 Geometry written to block  2 of record 700

 Orientation using atomic masses  
 Molecule type: Asymmetric top,     Order of principal axis = 2
 Symmetry elements: X,Y
 Rotational constants:     276.3750456    782.9303123    427.1644477 GHz  (calculated with average atomic masses)

 Point group  C2v 



 ATOMIC COORDINATES

 NR  ATOM    CHARGE       X              Y              Z

   1  O       8.00    0.000000000    0.000000000   -0.126971395
   2  H       1.00    0.000000000    1.447696664    1.007731675
   3  H       1.00    0.000000000   -1.447696664    1.007731675

 Bond lengths in Bohr (Angstrom)

 1-2  1.839395740  1-3  1.839395740
     ( 0.973366307)     ( 0.973366307)

 Bond angles

  2-1-3  103.82138040

 NUCLEAR CHARGE:                   10
 NUMBER OF PRIMITIVE AOS:          36
 NUMBER OF SYMMETRY AOS:           35
 NUMBER OF CONTRACTIONS:           18   (   9A1  +   3B1  +   5B2  +   1A2  )
 NUMBER OF CORE ORBITALS:           1   (   1A1  +   0B1  +   0B2  +   0A2  )
 NUMBER OF VALENCE ORBITALS:        6   (   3A1  +   1B1  +   2B2  +   0A2  )


 NUCLEAR REPULSION ENERGY    9.04388500

 Eigenvalues of metric

         1 0.649E-01 0.262E+00 0.423E+00 0.671E+00 0.983E+00 0.100E+01 0.109E+01 0.163E+01
         2 0.498E+00 0.100E+01 0.150E+01
         3 0.119E+00 0.196E+00 0.676E+00 0.115E+01 0.230E+01
         4 0.100E+01


 Contracted 2-electron integrals neglected if value below      1.0D-14
 AO integral compression algorithm  1   Integral accuracy      1.0D-14

     1.835 MB (compressed) written to integral file (100.0%)

     Node minimum: 0.262 MB, node maximum: 0.262 MB


 NUMBER OF SORTED TWO-ELECTRON INTEGRALS:        555.     BUFFER LENGTH:  32768
 NUMBER OF SEGMENTS:   1  SEGMENT LENGTH:        555      RECORD LENGTH: 524288

 Memory used in sort:       0.56 MW

 SORT1 READ        6192. AND WROTE         492. INTEGRALS IN      1 RECORDS. CPU TIME:     0.01 SEC, REAL TIME:     0.00 SEC
 SORT2 READ        3946. AND WROTE        4885. INTEGRALS IN      7 RECORDS. CPU TIME:     0.00 SEC, REAL TIME:     0.01 SEC

 Node minimum:         555.  Node maximum:        1053. integrals

 OPERATOR DM      FOR CENTER  0  COORDINATES:    0.000000    0.000000    0.000000
1PROGRAM * RHF-SCF (CLOSED SHELL)       Authors: W. Meyer, H.-J. Werner


 NUMBER OF ELECTRONS:       5+    5-
 CONVERGENCE THRESHOLDS:    1.00E-10 (Density)    1.00E-11 (Energy)
 MAX. NUMBER OF ITERATIONS:       60
 INTERPOLATION TYPE:            DIIS
 INTERPOLATION STEPS:              2 (START)      1 (STEP)
 LEVEL SHIFTS:                  0.00 (CLOSED)  0.00 (OPEN) 

 Number of closed-shell orbitals:    5 (   3   1   1   0 )


 Molecular orbitals read from record     2100.2  Type=RHF/CANONICAL (state 1.1)

 Molecular orbital dump at record        2100.2

 ITERATION    DDIFF          GRAD             ENERGY        2-EL.EN.            DIPOLE MOMENTS         DIIS   ORB.
    1      0.000D+00      0.000D+00       -76.00795525     75.438217    0.00000    0.00000    0.88095    0    start
    2      0.000D+00      0.117D-02       -76.00798270     75.504085    0.00000    0.00000    0.88212    1    diag
    3      0.922D-03      0.428D-03       -76.00798578     75.475950    0.00000    0.00000    0.88174    2    diag
    4      0.356D-03      0.130D-03       -76.00798623     75.483966    0.00000    0.00000    0.88279    3    diag
    5      0.116D-03      0.269D-04       -76.00798626     75.483465    0.00000    0.00000    0.88298    4    diag
    6      0.376D-04      0.628D-05       -76.00798626     75.483469    0.00000    0.00000    0.88306    5    diag
    7      0.145D-04      0.916D-06       -76.00798626     75.483467    0.00000    0.00000    0.88307    6    diag
    8      0.169D-05      0.141D-06       -76.00798626     75.483468    0.00000    0.00000    0.88307    7    orth
    9      0.268D-06      0.254D-07       -76.00798626     75.483468    0.00000    0.00000    0.88307    8    diag
   10      0.529D-07      0.192D-08       -76.00798626     75.483468    0.00000    0.00000    0.88307    9    diag
   11      0.387D-08      0.189D-09       -76.00798626     75.483468    0.00000    0.00000    0.88307    9    diag
   12      0.262D-09      0.275D-10       -76.00798626     75.483468    0.00000    0.00000    0.88307    9    diag
   13      0.282D-10      0.188D-11       -76.00798626     75.483468    0.00000    0.00000    0.88307    0    orth

 Final occupancy:   3   1   1   0

 !RHF STATE 1.1 Energy                -76.007986262540
 Nuclear energy                         9.04388500
 One-electron energy                 -122.79360521
 Two-electron energy                   37.74173394
 Virial quotient                       -1.00122182
 !RHF STATE 1.1 Dipole moment           0.00000000     0.00000000     0.88306652
 Dipole moment /Debye                   0.00000000     0.00000000     2.24438421

 Orbital energies:

         1.1          2.1          3.1          4.1          5.1
    -20.558476    -1.333726    -0.569404     0.210905     1.147513

         1.2          2.2          3.2
     -0.496776     1.168137     2.069600

         1.3          2.3          3.3
     -0.696687     0.300004     1.012352

         1.4
      2.037937

 HOMO      1.2    -0.496776 =     -13.5180eV
 LUMO      4.1     0.210905 =       5.7390eV
 LUMO-HOMO         0.707681 =      19.2570eV


 **********************************************************************************************************************************
 DATASETS  * FILE   NREC   LENGTH (MB)   RECORD NAMES
              1      18       19.08       500      610      700      900      950      970     1000      129      960     1100   
                                          VAR    BASINP    GEOM    SYMINP    ZMAT    AOBASIS   BASIS     P2S    ABASIS      S 
                                         1400     1410     1200     1210     1080     1600     1650     1700   
                                           T        V       H0       H01     AOSYM     SMH    MOLCAS    OPER   

              2       5        0.39       700     1000      520     2100     5600   
                                         GEOM     BASIS   MCVARS     RHF     GINFO   

 PROGRAMS   *        TOTAL       RHF   CCSD(T)       RHF       INT
 CPU TIMES  *         1.70      0.21      0.06      0.04      0.24
 REAL TIME  *         3.02 SEC
 DISK USED  *       167.00 MB      
 SF USED    *         0.08 MB      
 GA USED    *         0.00 MB       (max)       0.00 MB       (current)
 **********************************************************************************************************************************


1PROGRAM * CCSD (Closed-shell coupled cluster)     Authors: C. Hampel, H.-J. Werner, 1991, M. Deegan, P.J. Knowles, 1992


 Convergence thresholds:  THRVAR = 1.00D-14  THRDEN = 1.00D-10

 CCSD(T)     terms to be evaluated (factor= 1.000)


 Number of core orbitals:           1 (   1   0   0   0 )
 Number of closed-shell orbitals:   4 (   2   1   1   0 )
 Number of external orbitals:      13 (   6   2   4   1 )

 Molecular orbitals read from record     2100.2  Type=RHF/CANONICAL (state 1.1)

 Number of N-1 electron functions:               4
 Number of N-2 electron functions:              10
 Number of singly external CSFs:                18
 Number of doubly external CSFs:               393
 Total number of CSFs:                         412

 Length of J-op  integral file:               0.00 MB
 Length of K-op  integral file:               0.01 MB
 Length of 3-ext integral record:             0.00 MB

 Memory could be reduced to 0.29 Mwords without degradation in triples

 Integral transformation finished. Total CPU:   0.00 sec, npass=  1  Memory used:   0.07 MW

 Reference energy:                    -76.00798626

 MP2 singlet pair energy:              -0.11459195
 MP2 triplet pair energy:              -0.07134087
 MP2 correlation energy:               -0.18593282
 MP2 total energy:                    -76.19391908

 SCS-MP2 correlation energy:           -0.18190021   (PS=  1.200000  PT=  0.333333)
 SCS-MP2 total energy:                -76.18988647

 ITER.      SQ.NORM     CORR.ENERGY   TOTAL ENERGY   ENERGY CHANGE        DEN1      VAR(S)    VAR(P)  DIIS     TIME  TIME/IT
   1      1.05285773    -0.19403566   -76.20202192    -0.00810284    -0.00461780  0.27D-03  0.74D-03  1  1     0.01     0.00
   2      1.05637817    -0.19510915   -76.20309541    -0.00107349    -0.00398893  0.54D-05  0.57D-04  2  2     0.01     0.00
   3      1.05715435    -0.19520399   -76.20319026    -0.00009484    -0.00056260  0.24D-05  0.24D-05  3  3     0.02     0.00
   4      1.05731474    -0.19520305   -76.20318932     0.00000094    -0.00008572  0.10D-06  0.14D-06  4  4     0.02     0.00
   5      1.05734732    -0.19520176   -76.20318802     0.00000129    -0.00001357  0.35D-07  0.64D-08  5  5     0.02     0.00
   6      1.05735164    -0.19520146   -76.20318772     0.00000030     0.00000046  0.29D-08  0.82D-09  6  6     0.02     0.00
   7      1.05735431    -0.19520137   -76.20318763     0.00000009    -0.00000025  0.11D-09  0.56D-10  6  1     0.02     0.00
[...]
  CCSD-T energy                       -76.204941716412
 !CCSD(T) total energy                -76.204980945431

 Timing summary (sec):

 STEP                 CPU(USER)    SYS     CPU(TOT)    WALL
 CCSD iterations         0.03      0.01      0.04      0.16

 Program statistics:

 Available memory in ccsd:               999998686
 Min. memory needed in ccsd:                  9177
 Max. memory used in ccsd:                    9551
 Max. memory used in cckext:                 42182 (13 integral passes)



 **********************************************************************************************************************************
 DATASETS  * FILE   NREC   LENGTH (MB)   RECORD NAMES
              1      21       19.51       500      610      700      702      900      950      970     1001      129      960   
                                          VAR    BASINP    GEOM     GEOM    SYMINP    ZMAT    AOBASIS   BASIS     P2S    ABASIS    
                                         1100     1400     1410     1200     1210     1080     1600     1650     1700     2100   
                                           S        T        V       H0       H01     AOSYM     SMH    MOLCAS    OPER      RHF  
                                         1380   
                                         JKOP   

              2       9        0.84       700     1000      520     2100     5600      701     5500      702     1001   
                                         GEOM     BASIS   MCVARS     RHF     GINFO    GEOM     HINFO    GEOM     BASIS   

 PROGRAMS   *        TOTAL   CCSD(T)      OPTG   CCSD(T)       RHF       INT
 CPU TIMES  *        11.47      0.05      3.91      0.06      0.04      0.24
 REAL TIME  *        14.87 SEC
 DISK USED  *       172.37 MB      
 SF USED    *         0.26 MB      
 GA USED    *         0.00 MB       (max)       0.00 MB       (current)
 **********************************************************************************************************************************

 Numerical CCSD(T) hessian completed. CPU-time:     8.32 sec, Elapsed:     8.75 sec

 CCSD(T) hessian saved to record  5300.2

 FREQUENCIES * CALCULATION OF HARMONIC VIBRATIONAL SPECTRA FOR CCSD(T)


 Permanent Dipole Moment [debye]
   1-  3    0.000000    0.000000    0.000000

 Dipole Moment Norm    0.0000000 [debye]

 Dipole Moment Derivatives [debye/ang]
                   1             2             3             4             5             6             7             8
         1     0.0000000     0.0000000     0.0000000     0.0000000     0.0000000     0.0000000     0.0000000     0.0000000
         2     0.0000000     0.0000000     0.0000000     0.0000000     0.0000000     0.0000000     0.0000000     0.0000000
         3     0.0000000     0.0000000     0.0000000     0.0000000     0.0000000     0.0000000     0.0000000     0.0000000
                   9
         1     0.0000000
         2     0.0000000
         3     0.0000000

 Projecting out rotations and translations

   Low Vibration      Wavenumber
        Nr             [1/cm] 
        1                0.00
        2                0.00
        3                0.00
        4                0.00
        5                0.00
        6                0.00

     Vibration        Wavenumber
        Nr             [1/cm] 
        1             1739.41
        2             3715.07
        3             3844.66

 FREQUENCIES * CALCULATION OF NORMAL MODES FOR CCSD(T)


 Atomic Coordinates

  Nr  Atom  Charge       X              Y              Z

   1   O     8.00    0.000000000    0.000000000   -0.126447880
   2   H     1.00    0.000000000    1.446317589    1.003576703
   3   H     1.00    0.000000000   -1.446317589    1.003576703

 Frequencies dumped to record   5400.2

 Gradient norm at reference geometry: 0.75114D-04

 Normal Modes

                              1 A1        2 A1        3 B2 
 Wavenumbers [cm-1]         1739.41     3715.07     3844.66
 Intensities [km/mol]          0.00        0.00        0.00
 Intensities [relative]        0.00        0.00        0.00
           OX1              0.00000     0.00000     0.00000
           OY1             -0.00000    -0.00000    -0.06734
           OZ1             -0.06816    -0.04846     0.00000
           HX2             -0.00000    -0.00000    -0.00000
           HY2             -0.40811     0.57403     0.53449
           HZ2              0.54096     0.38459     0.41760
           HX3              0.00000     0.00000    -0.00000
           HY3              0.40811    -0.57403     0.53449
           HZ3              0.54096     0.38459    -0.41760


 Normal Modes of low/zero frequencies

                                  1           2           3           4           5
 Wavenumbers [cm-1]            0.00        0.00        0.00        0.00        0.00
 Intensities [km/mol]          0.00        0.00        0.00        0.00        0.00
 Intensities [relative]        0.00        0.00        0.00        0.00        0.00
           OX1              0.00000     0.16067     0.19154     0.00000     0.00000
           OY1              0.16400     0.00000     0.00000     0.05815     0.14366
           OZ1              0.00509     0.00000     0.00000     0.00704     0.11229
           HX2             -0.38456     0.53962    -0.45263    -0.32378     0.44187
           HY2             -0.10946     0.00000     0.00000     0.40646     0.15524
           HZ2              0.35509     0.00000     0.00000    -0.43876     0.09748
           HX3              0.38456     0.53962    -0.45263     0.32378    -0.44187
           HY3             -0.10946     0.00000     0.00000     0.40646     0.15524
           HZ3             -0.34491     0.00000     0.00000     0.45284     0.12711

                                  6
 Wavenumbers [cm-1]            0.00
 Intensities [km/mol]          0.00
 Intensities [relative]        0.00
           OX1              0.00000
           OY1             -0.08397
           OZ1              0.20694
           HX2             -0.21930
           HY2             -0.09537
           HZ2              0.22153
           HX3              0.21930
           HY3             -0.09537
           HZ3              0.19235


 Zero point energy:  0.02118500 [H]     4649.57 [1/CM]       55.62 [KJ/MOL]

 Recomputing wavefunction at initial geometry


 Recomputing integrals since geometry and symmetry changed


 Using spherical harmonics

 Library entry O      S 6-31G                selected for orbital group  1
 Library entry O      P 6-31G                selected for orbital group  1
 Library entry O      D 6-31G*               selected for orbital group  1
 Library entry H      S 6-31G                selected for orbital group  2

1PROGRAM * SEWARD (Integral evaluation for generally contracted gaussian basis sets)     Author: Roland Lindh, 1990

 Geometry written to block  1 of record 700

 Orientation using atomic masses  
 Molecule type: Asymmetric top,     Order of principal axis = 2
 Symmetry elements: X,Y
 Rotational constants:     277.5231547    789.4266518    427.9794455 GHz  (calculated with average atomic masses)

 Point group  C2v 



 ATOMIC COORDINATES

 NR  ATOM    CHARGE       X              Y              Z

   1  O       8.00    0.000000000    0.000000000   -0.126447880
   2  H       1.00    0.000000000    1.446317589    1.003576703
   3  H       1.00    0.000000000   -1.446317589    1.003576703

 Bond lengths in Bohr (Angstrom)

 1-2  1.835426415  1-3  1.835426415
     ( 0.971265831)     ( 0.971265831)

 Bond angles

  2-1-3  103.99815804

 NUCLEAR CHARGE:                   10
 NUMBER OF PRIMITIVE AOS:          36
 NUMBER OF SYMMETRY AOS:           35
 NUMBER OF CONTRACTIONS:           18   (   9A1  +   3B1  +   5B2  +   1A2  )
 NUMBER OF CORE ORBITALS:           1   (   1A1  +   0B1  +   0B2  +   0A2  )
 NUMBER OF VALENCE ORBITALS:        6   (   3A1  +   1B1  +   2B2  +   0A2  )

 SYMMETRY CHANGED: INITIALIZING OCCUPATION


 NUCLEAR REPULSION ENERGY    9.06302587

 Eigenvalues of metric

         1 0.646E-01 0.262E+00 0.423E+00 0.670E+00 0.983E+00 0.100E+01 0.109E+01 0.163E+01
         2 0.498E+00 0.100E+01 0.150E+01
         3 0.118E+00 0.195E+00 0.676E+00 0.115E+01 0.230E+01
         4 0.100E+01


 Contracted 2-electron integrals neglected if value below      1.0D-14
 AO integral compression algorithm  1   Integral accuracy      1.0D-14

     1.835 MB (compressed) written to integral file (100.0%)

     Node minimum: 0.262 MB, node maximum: 0.262 MB


 NUMBER OF SORTED TWO-ELECTRON INTEGRALS:        555.     BUFFER LENGTH:  32768
 NUMBER OF SEGMENTS:   1  SEGMENT LENGTH:        555      RECORD LENGTH: 524288

 Memory used in sort:       0.56 MW

 SORT1 READ        6192. AND WROTE         492. INTEGRALS IN      1 RECORDS. CPU TIME:     0.01 SEC, REAL TIME:     0.01 SEC
 SORT2 READ        3946. AND WROTE        4885. INTEGRALS IN      7 RECORDS. CPU TIME:     0.00 SEC, REAL TIME:     0.00 SEC

 Node minimum:         555.  Node maximum:        1053. integrals

 OPERATOR DM      FOR CENTER  0  COORDINATES:    0.000000    0.000000    0.000000
1PROGRAM * RHF-SCF (CLOSED SHELL)       Authors: W. Meyer, H.-J. Werner


 NUMBER OF ELECTRONS:       5+    5-
 CONVERGENCE THRESHOLDS:    1.00E-10 (Density)    1.00E-11 (Energy)
 MAX. NUMBER OF ITERATIONS:       60
 INTERPOLATION TYPE:            DIIS
 INTERPOLATION STEPS:              2 (START)      1 (STEP)
 LEVEL SHIFTS:                  0.00 (CLOSED)  0.00 (OPEN) 



 Molecular orbitals read from record     2100.2  Type=RHF/CANONICAL (state 1.1)

 Molecular orbital dump at record        2100.2

 ITERATION    DDIFF          GRAD             ENERGY        2-EL.EN.            DIPOLE MOMENTS         DIIS   ORB.
    1      0.000D+00      0.000D+00       -76.00819425     75.514518    0.00000    0.00000    0.88116    0    start
    2      0.000D+00      0.336D-12       -76.00819425     75.514518    0.00000    0.00000    0.88116    0    orth

 Final occupancy:   3   1   1   0

 !RHF STATE 1.1 Energy                -76.008194249323
 Nuclear energy                         9.06302587
 One-electron energy                 -122.82847925
 Two-electron energy                   37.75725913
 Virial quotient                       -1.00111910
 !RHF STATE 1.1 Dipole moment           0.00000000     0.00000000     0.88115666
 Dipole moment /Debye                   0.00000000     0.00000000     2.23953014

 Orbital energies:

         1.1          2.1          3.1          4.1          5.1
    -20.557949    -1.334625    -0.569431     0.211417     1.149154

         1.2          2.2          3.2
     -0.496840     1.168186     2.069442

         1.3          2.3          3.3
     -0.698135     0.300617     1.014030

         1.4
      2.037305

 HOMO      1.2    -0.496840 =     -13.5197eV
 LUMO      4.1     0.211417 =       5.7529eV
 LUMO-HOMO         0.708256 =      19.2726eV


 **********************************************************************************************************************************
 DATASETS  * FILE   NREC   LENGTH (MB)   RECORD NAMES
              1      18       19.08       500      610      700      900      950      970     1000      129      960     1100   
                                          VAR    BASINP    GEOM    SYMINP    ZMAT    AOBASIS   BASIS     P2S    ABASIS      S 
                                         1400     1410     1200     1210     1080     1600     1650     1700   
                                           T        V       H0       H01     AOSYM     SMH    MOLCAS    OPER   

              2       8        0.39       700     1000      520     2100     5600     5300     5400     5450   
                                         GEOM     BASIS   MCVARS     RHF     GINFO    HESS     FREQ     NMOD   

 PROGRAMS   *        TOTAL       RHF      OPTG   CCSD(T)       RHF       INT
 CPU TIMES  *        11.68      0.21      3.91      0.06      0.04      0.24
 REAL TIME  *        15.12 SEC
 DISK USED  *       172.37 MB      
 SF USED    *         0.26 MB      
 GA USED    *         0.00 MB       (max)       0.00 MB       (current)
 **********************************************************************************************************************************


1PROGRAM * CCSD (Closed-shell coupled cluster)     Authors: C. Hampel, H.-J. Werner, 1991, M. Deegan, P.J. Knowles, 1992


 Convergence thresholds:  THRVAR = 1.00D-14  THRDEN = 1.00D-10

 CCSD(T)     terms to be evaluated (factor= 1.000)


 Number of core orbitals:           1 (   1   0   0   0 )
 Number of closed-shell orbitals:   4 (   2   1   1   0 )
 Number of external orbitals:      13 (   6   2   4   1 )

 Molecular orbitals read from record     2100.2  Type=RHF/CANONICAL (state 1.1)

 Number of N-1 electron functions:               4
 Number of N-2 electron functions:              10
 Number of singly external CSFs:                18
 Number of doubly external CSFs:               393
 Total number of CSFs:                         412

 Length of J-op  integral file:               0.00 MB
 Length of K-op  integral file:               0.01 MB
 Length of 3-ext integral record:             0.00 MB

 Memory could be reduced to 0.29 Mwords without degradation in triples

 Integral transformation finished. Total CPU:   0.00 sec, npass=  1  Memory used:   0.07 MW

 Reference energy:                    -76.00819425

 MP2 singlet pair energy:              -0.11446234
 MP2 triplet pair energy:              -0.07128751
 MP2 correlation energy:               -0.18574985
 MP2 total energy:                    -76.19394410

 SCS-MP2 correlation energy:           -0.18171148   (PS=  1.200000  PT=  0.333333)
 SCS-MP2 total energy:                -76.18990573

 ITER.      SQ.NORM     CORR.ENERGY   TOTAL ENERGY   ENERGY CHANGE        DEN1      VAR(S)    VAR(P)  DIIS     TIME  TIME/IT
   1      1.05272816    -0.19385522   -76.20204947    -0.00810537    -0.00463724  0.26D-03  0.73D-03  1  1     0.00     0.00
   2      1.05622047    -0.19492076   -76.20311501    -0.00106555    -0.00397101  0.54D-05  0.56D-04  2  2     0.01     0.00
   3      1.05698489    -0.19501479   -76.20320904    -0.00009403    -0.00055614  0.23D-05  0.23D-05  3  3     0.01     0.00
   4      1.05714229    -0.19501375   -76.20320800     0.00000104    -0.00008456  0.10D-06  0.13D-06  4  4     0.01     0.00
   5      1.05717415    -0.19501247   -76.20320672     0.00000128    -0.00001336  0.34D-07  0.62D-08  5  5     0.01     0.00
   6      1.05717834    -0.19501218   -76.20320643     0.00000029     0.00000047  0.29D-08  0.80D-09  6  6     0.01     0.00
   7      1.05718096    -0.19501209   -76.20320634     0.00000009    -0.00000025  0.10D-09  0.55D-10  6  1     0.01     0.00
   8      1.05718136    -0.19501206   -76.20320631     0.00000003    -0.00000002  0.16D-11  0.41D-11  6  2     0.01     0.00
   9      1.05718145    -0.19501205   -76.20320629     0.00000001    -0.00000004  0.71D-13  0.24D-12  6  3     0.02     0.00
  10      1.05718149    -0.19501204   -76.20320629     0.00000000    -0.00000003  0.12D-14  0.47D-14  6  6     0.02     0.00
  11      1.05718149    -0.19501204   -76.20320629     0.00000000    -0.00000000  0.11D-15  0.36D-15  6  4     0.02     0.00
  12      1.05718149    -0.19501204   -76.20320629     0.00000000     0.00000000  0.68D-17  0.20D-16  6  5     0.02     0.00
  13      1.05718149    -0.19501204   -76.20320629    -0.00000000     0.00000000  0.78D-18  0.49D-18  6  1     0.02     0.00

 Norm of t1 vector:      0.02341583      S-energy:    -0.00000000      T1 diagnostic:  0.00585396
                                                                       D1 diagnostic:  0.01051820

 Doubles amplitudes (print threshold =  0.500E-01):

         I         J         SYM. A    SYM. B    A         B      T(IJ, AB)

         3         3         2         2         1         1     -0.05237366

 Total CPU time for triples:      0.00 sec


 RESULTS
 =======

  Reference energy                    -76.008194249323
  CCSD singlet pair energy             -0.132239111156
  CCSD triplet pair energy             -0.062772931711
  CCSD correlation energy              -0.195012042874

  Triples (T) contribution             -0.001796581421
  Total correlation energy             -0.196808624295

  CCSD total energy                   -76.203206292197
  CCSD[T] energy                      -76.205090952987
  CCSD-T energy                       -76.204963314060
 !CCSD(T) total energy                -76.205002873618

 Timing summary (sec):

 STEP                 CPU(USER)    SYS     CPU(TOT)    WALL
 CCSD iterations         0.02      0.00      0.02      0.02

 Program statistics:

 Available memory in ccsd:               999999836
 Min. memory needed in ccsd:                  3277
 Max. memory used in ccsd:                    3491
 Max. memory used in cckext:                 36036 (13 integral passes)



 **********************************************************************************************************************************
 DATASETS  * FILE   NREC   LENGTH (MB)   RECORD NAMES
              1      19       19.10       500      610      700      900      950      970     1000      129      960     1100   
                                          VAR    BASINP    GEOM    SYMINP    ZMAT    AOBASIS   BASIS     P2S    ABASIS      S 
                                         1400     1410     1200     1210     1080     1600     1650     1700     1380   
                                           T        V       H0       H01     AOSYM     SMH    MOLCAS    OPER     JKOP   

              2       8        0.39       700     1000      520     2100     5600     5300     5400     5450   
                                         GEOM     BASIS   MCVARS     RHF     GINFO    HESS     FREQ     NMOD   

 PROGRAMS   *        TOTAL   CCSD(T)      OPTG   CCSD(T)       RHF       INT
 CPU TIMES  *        11.74      0.06      3.91      0.06      0.04      0.24
 REAL TIME  *        15.17 SEC
 DISK USED  *       172.37 MB      
 SF USED    *         0.26 MB      
 GA USED    *         0.00 MB       (max)       0.00 MB       (current)
 **********************************************************************************************************************************


 **********************************************************************************************************************************
 DATASETS  * FILE   NREC   LENGTH (MB)   RECORD NAMES
              1      19       19.10       500      610      700      900      950      970     1000      129      960     1100   
                                          VAR    BASINP    GEOM    SYMINP    ZMAT    AOBASIS   BASIS     P2S    ABASIS      S 
                                         1400     1410     1200     1210     1080     1600     1650     1700     1380   
                                           T        V       H0       H01     AOSYM     SMH    MOLCAS    OPER     JKOP   

              2       8        0.39       700     1000      520     2100     5600     5300     5400     5450   
                                         GEOM     BASIS   MCVARS     RHF     GINFO    HESS     FREQ     NMOD   

 PROGRAMS   *        TOTAL      FREQ      OPTG   CCSD(T)       RHF       INT
 CPU TIMES  *        11.74      7.38      3.91      0.06      0.04      0.24
 REAL TIME  *        15.17 SEC
 DISK USED  *       172.37 MB      
 SF USED    *         0.26 MB      
 GA USED    *         0.00 MB       (max)       0.00 MB       (current)
 **********************************************************************************************************************************

 CCSD(T)/6-31G* energy=    -76.205002873618

   OPTG(CCSD(T))        CCSD(T)         RHF-SCF 
    -76.20500287    -76.20485208    -76.00727126
 **********************************************************************************************************************************
 Variable memory released
