
 Nodes     nprocs
 bdw-0389     3
 bdw-0390     3
 bdw-0410     3
 bdw-0411     3
 Number of processes for MPI-2 version of Molpro:   nprocs(total)=   16   nprocs(compute)=   12   nprocs(helper)=    4

 Using customized tuning parameters: mindgm=7; mindgv=16; mindgc=1; mindgr=1; noblas=0; minvec=7
 default implementation of scratch files=df  

 memory,1000,m
 gthresh,energy=1.0d-10,orbital=1.0d-10
 
 angstrom
 Geometry = {
 O
 H 1 r1
 H 1 r1 2 a1
 }
 
 r1 =  0.98
 a1 = 104.5
 
 basis=cc-pVDZ
 
 {rhf}
 {ccsd(t)}
 {optg}
 {freq}
 

 Variables initialized (889), CPU time= 0.00 sec
 Commands  initialized (702), CPU time= 0.01 sec, 572 directives.
 Default parameters read. Elapsed time= 0.82 sec

 Checking input...
 Passed
1


                                         ***  PROGRAM SYSTEM MOLPRO  ***
                                       Copyright, TTI GmbH Stuttgart, 2015
                                    Version 2015.1 linked Sep 21 2017 09:51:13


 **********************************************************************************************************************************
 LABEL *                                                                                 
  64 bit mppx version                                                                    DATE: 17-Oct-18          TIME: 17:04:25  
 **********************************************************************************************************************************

 SHA1:             f86d681fdec979508940bfbbc93fd7db66630888
 **********************************************************************************************************************************

 THRESHOLDS:

 ZERO    =  1.00D-12  ONEINT  =  1.00D-12  TWOINT  =  1.00D-11  PREFAC  =  1.00D-14  LOCALI  =  1.00D-09  EORDER  =  1.00D-04
 ENERGY  =  1.00D-10  ETEST   =  0.00D+00  EDENS   =  0.00D+00  THRDEDEF=  1.00D-06  GRADIENT=  1.00D-02  STEP    =  1.00D-03
 ORBITAL =  1.00D-10  CIVEC   =  1.00D-05  COEFF   =  1.00D-04  PRINTCI =  5.00D-02  PUNCHCI =  9.90D+01  OPTGRAD =  3.00D-04
 OPTENERG=  1.00D-06  OPTSTEP =  3.00D-04  THRGRAD =  1.00D-10  COMPRESS=  1.00D-11  VARMIN  =  1.00D-07  VARMAX  =  1.00D-03
 THRDOUB =  0.00D+00  THRDIV  =  1.00D-05  THRRED  =  1.00D-07  THRPSP  =  1.00D+00  THRDC   =  1.00D-10  THRCS   =  1.00D-10
 THRNRM  =  1.00D-08  THREQ   =  0.00D+00  THRDE   =  1.00D+00  THRREF  =  1.00D-05  SPARFAC =  1.00D+00  THRDLP  =  1.00D-07
 THRDIA  =  1.00D-10  THRDLS  =  1.00D-07  THRGPS  =  0.00D+00  THRKEX  =  0.00D+00  THRDIS  =  2.00D-01  THRVAR  =  1.00D-10
 THRLOC  =  1.00D-06  THRGAP  =  1.00D-06  THRLOCT = -1.00D+00  THRGAPT = -1.00D+00  THRORB  =  1.00D-06  THRMLTP =  0.00D+00
 THRCPQCI=  1.00D-10  KEXTA   =  0.00D+00  THRCOARS=  0.00D+00  SYMTOL  =  1.00D-06  GRADTOL =  1.00D-06  THROVL  =  1.00D-08
 THRORTH =  1.00D-08  GRID    =  1.00D-06  GRIDMAX =  1.00D-03  DTMAX   =  0.00D+00  THROCCDE=  1.00D-01  THROCCDE=  1.00D-01


 ZUNIT=ANG
 
 SETTING R1             =         0.98000000                                  
 SETTING A1             =       104.50000000                                  

 Variable memory set to 1000000000 words,  buffer space   230000 words

 SETTING BASIS          =    CC-PVDZ


 Recomputing integrals since basis changed


 Using spherical harmonics

 Library entry O      S cc-pVDZ              selected for orbital group  1
 Library entry O      P cc-pVDZ              selected for orbital group  1
 Library entry O      D cc-pVDZ              selected for orbital group  1
 Library entry H      S cc-pVDZ              selected for orbital group  2
 Library entry H      P cc-pVDZ              selected for orbital group  2


 PROGRAM * SEWARD (Integral evaluation for generally contracted gaussian basis sets)     Author: Roland Lindh, 1990

 Geometry written to block  1 of record 700

 Orientation using atomic masses  
 Molecule type: Asymmetric top,     Order of principal axis = 2
 Symmetry elements: X,Y
 Rotational constants:     272.4632506    784.1994164    417.5306268 GHz  (calculated with average atomic masses)

 Point group  C2v 



 ATOMIC COORDINATES

 NR  ATOM    CHARGE       X              Y              Z

   1  O       8.00    0.000000000    0.000000000   -0.126868611
   2  H       1.00    0.000000000    1.464303009    1.006915917
   3  H       1.00    0.000000000   -1.464303009    1.006915917

 Bond lengths in Bohr (Angstrom)

 1-2  1.851931602  1-3  1.851931602
     ( 0.980000000)     ( 0.980000000)

 Bond angles

  2-1-3  104.50000000

 NUCLEAR CHARGE:                   10
 NUMBER OF PRIMITIVE AOS:          41
 NUMBER OF SYMMETRY AOS:           40
 NUMBER OF CONTRACTIONS:           24   (  11A1  +   4B1  +   7B2  +   2A2  )
 NUMBER OF CORE ORBITALS:           1   (   1A1  +   0B1  +   0B2  +   0A2  )
 NUMBER OF VALENCE ORBITALS:        6   (   3A1  +   1B1  +   2B2  +   0A2  )


 NUCLEAR REPULSION ENERGY    8.98108732

 Eigenvalues of metric

         1 0.181E-01 0.536E-01 0.163E+00 0.224E+00 0.532E+00 0.986E+00 0.101E+01 0.128E+01
         2 0.183E+00 0.544E+00 0.110E+01 0.222E+01
         3 0.474E-01 0.100E+00 0.177E+00 0.687E+00 0.102E+01 0.118E+01 0.255E+01
         4 0.638E+00 0.132E+01


 Contracted 2-electron integrals neglected if value below      1.0D-14
 AO integral compression algorithm  1   Integral accuracy      1.0D-14

     0.262 MB (compressed) written to integral file (100.0%)


 NUMBER OF SORTED TWO-ELECTRON INTEGRALS:      13826.     BUFFER LENGTH:  32768
 NUMBER OF SEGMENTS:   1  SEGMENT LENGTH:      13826      RECORD LENGTH: 524288

 Memory used in sort:       0.57 MW

 SORT1 READ       19290. AND WROTE       12665. INTEGRALS IN      1 RECORDS. CPU TIME:     0.00 SEC, REAL TIME:     0.00 SEC
 SORT2 READ       12665. AND WROTE       13826. INTEGRALS IN      1 RECORDS. CPU TIME:     0.01 SEC, REAL TIME:     0.00 SEC

 FILE SIZES:   FILE 1:    19.4 MBYTE,  FILE 4:     4.2 MBYTE,   TOTAL:     23.6 MBYTE

 OPERATOR DM      FOR CENTER  0  COORDINATES:    0.000000    0.000000    0.000000


 **********************************************************************************************************************************
 DATASETS  * FILE   NREC   LENGTH (MB)   RECORD NAMES
              1      19       19.20       500      610      700      900      950      970     1000      129      960     1100   
                                          VAR    BASINP    GEOM    SYMINP    ZMAT    AOBASIS   BASIS     P2S    ABASIS      S 
                                         1400     1410     1200     1210     1080     1600     1650     1300     1700   
                                           T        V       H0       H01     AOSYM     SMH    MOLCAS    ERIS     OPER   

 PROGRAMS   *        TOTAL       INT
 CPU TIMES  *         0.63      0.12
 REAL TIME  *         2.37 SEC
 DISK USED  *        23.86 MB      
 **********************************************************************************************************************************


 PROGRAM * RHF-SCF (CLOSED SHELL)       Authors: W. Meyer, H.-J. Werner


 NUMBER OF ELECTRONS:       5+    5-
 CONVERGENCE THRESHOLDS:    1.00E-10 (Density)    1.00E-11 (Energy)
 MAX. NUMBER OF ITERATIONS:       60
 INTERPOLATION TYPE:            DIIS
 INTERPOLATION STEPS:              2 (START)      1 (STEP)
 LEVEL SHIFTS:                  0.00 (CLOSED)  0.00 (OPEN) 



 Orbital guess generated from atomic densities. Full valence occupancy:    4   1   2   0

 Molecular orbital dump at record        2100.2

 Initial occupancy:   3   1   1   0

 ITERATION    DDIFF          GRAD             ENERGY        2-EL.EN.            DIPOLE MOMENTS         DIIS   ORB.
    1      0.000D+00      0.000D+00       -75.98568622     77.581727    0.00000    0.00000    1.17284    0    start
    2      0.000D+00      0.373D-01       -76.01555589     74.256344    0.00000    0.00000    0.75849    1    diag
    3      0.771D-01      0.200D-01       -76.02447940     75.614366    0.00000    0.00000    0.83678    2    diag
    4      0.259D-01      0.225D-02       -76.02471407     75.514658    0.00000    0.00000    0.82264    3    diag
    5      0.484D-02      0.629D-03       -76.02473439     75.527197    0.00000    0.00000    0.81835    4    diag
    6      0.158D-02      0.985D-04       -76.02473504     75.527095    0.00000    0.00000    0.81760    5    diag
    7      0.254D-03      0.139D-04       -76.02473505     75.527037    0.00000    0.00000    0.81747    6    diag
    8      0.435D-04      0.117D-05       -76.02473505     75.527030    0.00000    0.00000    0.81746    7    diag
    9      0.314D-05      0.163D-06       -76.02473505     75.527028    0.00000    0.00000    0.81746    8    diag
   10      0.411D-06      0.415D-07       -76.02473505     75.527028    0.00000    0.00000    0.81746    9    orth
   11      0.126D-06      0.575D-08       -76.02473505     75.527028    0.00000    0.00000    0.81746    9    diag
   12      0.178D-07      0.110D-08       -76.02473505     75.527028    0.00000    0.00000    0.81746    9    diag
   13      0.336D-08      0.160D-09       -76.02473505     75.527028    0.00000    0.00000    0.81746    9    diag
   14      0.351D-09      0.173D-10       -76.02473505     75.527028    0.00000    0.00000    0.81746    9    diag
   15      0.415D-10      0.292D-11       -76.02473505     75.527028    0.00000    0.00000    0.81746    0    orth

 Final occupancy:   3   1   1   0

 !RHF STATE 1.1 Energy                -76.024735051880
 Nuclear energy                         8.98108732
 One-electron energy                 -122.76933647
 Two-electron energy                   37.76351411
 Virial quotient                       -1.00158482
 !RHF STATE 1.1 Dipole moment           0.00000000     0.00000000     0.81746186
 Dipole moment /Debye                   0.00000000     0.00000000     2.07764471

 Orbital energies:

         1.1          2.1          3.1          4.1          5.1
    -20.554409    -1.325474    -0.562396     0.181636     0.833483

         1.2          2.2          3.2
     -0.491598     1.199774     1.670688

         1.3          2.3          3.3
     -0.687276     0.252781     0.773404

         1.4          2.4
      1.470623     3.316753

 HOMO      1.2    -0.491598 =     -13.3771eV
 LUMO      4.1     0.181636 =       4.9426eV
 LUMO-HOMO         0.673235 =      18.3196eV


 **********************************************************************************************************************************
 DATASETS  * FILE   NREC   LENGTH (MB)   RECORD NAMES
              1      19       19.20       500      610      700      900      950      970     1000      129      960     1100   
                                          VAR    BASINP    GEOM    SYMINP    ZMAT    AOBASIS   BASIS     P2S    ABASIS      S 
                                         1400     1410     1200     1210     1080     1600     1650     1300     1700   
                                           T        V       H0       H01     AOSYM     SMH    MOLCAS    ERIS     OPER   

              2       4        2.76       700     1000      520     2100   
                                         GEOM     BASIS   MCVARS     RHF  

 PROGRAMS   *        TOTAL       RHF       INT
 CPU TIMES  *         0.65      0.02      0.12
 REAL TIME  *         2.47 SEC
 DISK USED  *        23.86 MB      
 **********************************************************************************************************************************


 PROGRAM * CCSD (Closed-shell coupled cluster)     Authors: C. Hampel, H.-J. Werner, 1991, M. Deegan, P.J. Knowles, 1992


 Convergence thresholds:  THRVAR = 1.00D-14  THRDEN = 1.00D-10

 CCSD(T)     terms to be evaluated (factor= 1.000)


 Number of core orbitals:           1 (   1   0   0   0 )
 Number of closed-shell orbitals:   4 (   2   1   1   0 )
 Number of external orbitals:      19 (   8   3   6   2 )

 Molecular orbitals read from record     2100.2  Type=RHF/CANONICAL (state 1.1)

 Number of N-1 electron functions:               4
 Number of N-2 electron functions:              10
 Number of singly external CSFs:                25
 Number of doubly external CSFs:               805
 Total number of CSFs:                         831

 Length of J-op  integral file:               0.00 MB
 Length of K-op  integral file:               0.04 MB
 Length of 3-ext integral record:             0.00 MB

 Memory could be reduced to 0.30 Mwords without degradation in triples

 Integral transformation finished. Total CPU:   0.01 sec, npass=  1  Memory used:   0.07 MW

 Reference energy:                    -76.02473505

 MP2 singlet pair energy:              -0.12678906
 MP2 triplet pair energy:              -0.07646036
 MP2 correlation energy:               -0.20324942
 MP2 total energy:                    -76.22798447

 SCS-MP2 correlation energy:           -0.19972220   (PS=  1.200000  PT=  0.333333)
 SCS-MP2 total energy:                -76.22445725

 ITER.      SQ.NORM     CORR.ENERGY   TOTAL ENERGY   ENERGY CHANGE        DEN1      VAR(S)    VAR(P)  DIIS     TIME  TIME/IT
   1      1.05405582    -0.21175722   -76.23649227    -0.00850780    -0.00477461  0.30D-03  0.72D-03  1  1     0.01     0.01
   2      1.05744310    -0.21274810   -76.23748315    -0.00099088    -0.00403495  0.60D-05  0.64D-04  2  2     0.01     0.00
   3      1.05832762    -0.21283083   -76.23756588    -0.00008273    -0.00064789  0.23D-05  0.26D-05  3  3     0.01     0.00
   4      1.05853367    -0.21283463   -76.23756968    -0.00000380    -0.00010813  0.17D-06  0.16D-06  4  4     0.01     0.00
   5      1.05857471    -0.21283304   -76.23756809     0.00000159    -0.00001783  0.45D-07  0.98D-08  5  5     0.01     0.00
   6      1.05858116    -0.21283297   -76.23756802     0.00000007     0.00000033  0.54D-08  0.11D-08  6  6     0.01     0.00
   7      1.05858452    -0.21283290   -76.23756795     0.00000007    -0.00000033  0.19D-09  0.92D-10  6  1     0.02     0.00
   8      1.05858495    -0.21283285   -76.23756790     0.00000005     0.00000009  0.54D-11  0.66D-11  6  2     0.02     0.00
   9      1.05858508    -0.21283283   -76.23756788     0.00000001    -0.00000006  0.12D-12  0.41D-12  6  3     0.02     0.00
  10      1.05858512    -0.21283283   -76.23756788     0.00000000    -0.00000003  0.29D-14  0.12D-13  6  4     0.02     0.00
  11      1.05858513    -0.21283283   -76.23756788     0.00000000    -0.00000000  0.29D-15  0.49D-15  6  6     0.02     0.00
  12      1.05858513    -0.21283283   -76.23756788     0.00000000    -0.00000000  0.64D-17  0.19D-16  6  5     0.02     0.00
  13      1.05858513    -0.21283283   -76.23756788     0.00000000    -0.00000000  0.14D-17  0.14D-17  6  1     0.03     0.00

 Norm of t1 vector:      0.02503316      S-energy:    -0.00000000      T1 diagnostic:  0.00625829
                                                                       D1 diagnostic:  0.01208916

 Doubles amplitudes (print threshold =  0.500E-01):

         I         J         SYM. A    SYM. B    A         B      T(IJ, AB)

         3         3         2         2         1         1     -0.05147998


 Total CPU time for triples:      0.00 sec


 RESULTS
 =======

  Reference energy                    -76.024735051880
  CCSD singlet pair energy             -0.144878289280
  CCSD triplet pair energy             -0.067954541113
  CCSD correlation energy              -0.212832830408

  Triples (T) contribution             -0.003142345481
  Total correlation energy             -0.215975175889

  CCSD total energy                   -76.237567882288
  CCSD[T] energy                      -76.240801685898
  CCSD-T energy                       -76.240651972786
 !CCSD(T) total energy                -76.240710227769

 Timing summary (sec):

 STEP                 CPU(USER)    SYS     CPU(TOT)    WALL
 Transformation          0.01      0.00      0.01      0.00
 CCSD iterations         0.02      0.01      0.03      0.07

 Program statistics:

 Available memory in ccsd:               999999836
 Min. memory needed in ccsd:                  5661
 Max. memory used in ccsd:                    6126
 Max. memory used in cckext:                 38485 (13 integral passes)



 **********************************************************************************************************************************
 DATASETS  * FILE   NREC   LENGTH (MB)   RECORD NAMES
              1      20       19.26       500      610      700      900      950      970     1000      129      960     1100   
                                          VAR    BASINP    GEOM    SYMINP    ZMAT    AOBASIS   BASIS     P2S    ABASIS      S 
                                         1400     1410     1200     1210     1080     1600     1650     1300     1700     1380   
                                           T        V       H0       H01     AOSYM     SMH    MOLCAS    ERIS     OPER     JKOP   

              2       4        2.76       700     1000      520     2100   
                                         GEOM     BASIS   MCVARS     RHF  

 PROGRAMS   *        TOTAL   CCSD(T)       RHF       INT
 CPU TIMES  *         0.70      0.06      0.02      0.12
 REAL TIME  *         2.56 SEC
 DISK USED  *        23.86 MB      
 **********************************************************************************************************************************


 PROGRAM * OPT (Geometry optimization)     Authors: F. Eckert and H.-J. Werner


 BFGS update of hessian

 Running default procedure: RHF-SCF000  CCSD(T)

 Geometry optimization using default procedure for command CCSD(T)

 Geometry written to block  1 of record 700
 

 Number of displacements for numerical gradient:      4

 Starting task   2 Incrementing variable R1       by  -0.00529 ANG to    0.97471 ANG. CPU=    0.01 sec, Elapsed=    0.01 sec


 Recomputing integrals since geometry changed


 PROGRAM * SEWARD (Integral evaluation for generally contracted gaussian basis sets)     Author: Roland Lindh, 1990

 Geometry written to block  1 of record 700

 Orientation using atomic masses  
 Molecule type: Asymmetric top,     Order of principal axis = 2
 Symmetry elements: X,Y
 Rotational constants:     275.4297327    792.7374985    422.0765506 GHz  (calculated with average atomic masses)

 Point group  C2v 



 ATOMIC COORDINATES

 NR  ATOM    CHARGE       X              Y              Z

   1  O       8.00    0.000000000    0.000000000   -0.126183550
   2  H       1.00    0.000000000    1.456396113    1.001478805
   3  H       1.00    0.000000000   -1.456396113    1.001478805

 Bond lengths in Bohr (Angstrom)

 1-2  1.841931602  1-3  1.841931602
     ( 0.974708228)     ( 0.974708228)

 Bond angles

  2-1-3  104.50000000

 NUCLEAR CHARGE:                   10
 NUMBER OF PRIMITIVE AOS:          41
 NUMBER OF SYMMETRY AOS:           40
 NUMBER OF CONTRACTIONS:           24   (  11A1  +   4B1  +   7B2  +   2A2  )
 NUMBER OF CORE ORBITALS:           1   (   1A1  +   0B1  +   0B2  +   0A2  )
 NUMBER OF VALENCE ORBITALS:        6   (   3A1  +   1B1  +   2B2  +   0A2  )


 NUCLEAR REPULSION ENERGY    9.02984639

 Eigenvalues of metric

         1 0.179E-01 0.529E-01 0.162E+00 0.223E+00 0.527E+00 0.986E+00 0.101E+01 0.128E+01
         2 0.183E+00 0.539E+00 0.110E+01 0.223E+01
         3 0.467E-01 0.998E-01 0.175E+00 0.682E+00 0.103E+01 0.118E+01 0.255E+01
         4 0.633E+00 0.132E+01


 Contracted 2-electron integrals neglected if value below      1.0D-14
 AO integral compression algorithm  1   Integral accuracy      1.0D-14

     0.262 MB (compressed) written to integral file (100.0%)


 NUMBER OF SORTED TWO-ELECTRON INTEGRALS:      13826.     BUFFER LENGTH:  32768
 NUMBER OF SEGMENTS:   1  SEGMENT LENGTH:      13826      RECORD LENGTH: 524288

 Memory used in sort:       0.57 MW

 SORT1 READ       19290. AND WROTE       12665. INTEGRALS IN      1 RECORDS. CPU TIME:     0.00 SEC, REAL TIME:     0.00 SEC
 SORT2 READ       12665. AND WROTE       13826. INTEGRALS IN      1 RECORDS. CPU TIME:     0.00 SEC, REAL TIME:     0.01 SEC

 FILE SIZES:   FILE 1:    19.4 MBYTE,  FILE 4:     4.2 MBYTE,   TOTAL:     23.6 MBYTE

 OPERATOR DM      FOR CENTER  0  COORDINATES:    0.000000    0.000000    0.000000

 PROGRAM * RHF-SCF (CLOSED SHELL)       Authors: W. Meyer, H.-J. Werner


 NUMBER OF ELECTRONS:       5+    5-
 CONVERGENCE THRESHOLDS:    1.00E-10 (Density)    1.00E-11 (Energy)
 MAX. NUMBER OF ITERATIONS:       60
 INTERPOLATION TYPE:            DIIS
 INTERPOLATION STEPS:              2 (START)      1 (STEP)
 LEVEL SHIFTS:                  0.00 (CLOSED)  0.00 (OPEN) 

 Number of closed-shell orbitals:    5 (   3   1   1   0 )


 Molecular orbitals read from record     2100.2  Type=RHF/CANONICAL (state 1.1)

 Molecular orbital dump at record        2100.1

 ITERATION    DDIFF          GRAD             ENERGY        2-EL.EN.            DIPOLE MOMENTS         DIIS   ORB.
    1      0.000D+00      0.000D+00       -76.02536842     75.581340    0.00000    0.00000    0.81463    0    start
    2      0.000D+00      0.713D-03       -76.02538544     75.610530    0.00000    0.00000    0.81456    1    diag
    3      0.212D-02      0.198D-03       -76.02538664     75.597417    0.00000    0.00000    0.81468    2    diag
    4      0.464D-03      0.814D-04       -76.02538688     75.603584    0.00000    0.00000    0.81535    3    diag
    5      0.133D-03      0.197D-04       -76.02538690     75.603015    0.00000    0.00000    0.81548    4    diag
    6      0.443D-04      0.487D-05       -76.02538691     75.603040    0.00000    0.00000    0.81555    5    diag
    7      0.152D-04      0.938D-06       -76.02538691     75.603037    0.00000    0.00000    0.81556    6    diag
    8      0.283D-05      0.120D-06       -76.02538691     75.603038    0.00000    0.00000    0.81556    7    orth
    9      0.319D-06      0.189D-07       -76.02538691     75.603038    0.00000    0.00000    0.81556    8    diag
   10      0.537D-07      0.172D-08       -76.02538691     75.603038    0.00000    0.00000    0.81556    9    diag
   11      0.492D-08      0.248D-09       -76.02538691     75.603038    0.00000    0.00000    0.81556    9    diag
   12      0.616D-09      0.305D-10       -76.02538691     75.603038    0.00000    0.00000    0.81556    9    diag
   13      0.769D-10      0.198D-11       -76.02538691     75.603038    0.00000    0.00000    0.81556    0    orth

 Final occupancy:   3   1   1   0

 !RHF STATE 1.1 Energy                -76.025386905220
 Nuclear energy                         9.02984639
 One-electron energy                 -122.85675230
 Two-electron energy                   37.80151901
 Virial quotient                       -1.00134316
 !RHF STATE 1.1 Dipole moment           0.00000000     0.00000000     0.81555926
 Dipole moment /Debye                   0.00000000     0.00000000     2.07280910

 Orbital energies:

         1.1          2.1          3.1          4.1          5.1
    -20.553491    -1.328022    -0.563371     0.182569     0.838236

         1.2          2.2          3.2
     -0.491943     1.199987     1.671518

         1.3          2.3          3.3
     -0.690029     0.253615     0.777006

         1.4          2.4
      1.471895     3.321842

 HOMO      1.2    -0.491943 =     -13.3865eV
 LUMO      4.1     0.182569 =       4.9680eV
 LUMO-HOMO         0.674512 =      18.3544eV


 **********************************************************************************************************************************
 DATASETS  * FILE   NREC   LENGTH (MB)   RECORD NAMES
              1      20       21.68       500      610      700      900      950      970     1000      129      960     1100   
                                          VAR    BASINP    GEOM    SYMINP    ZMAT    AOBASIS   BASIS     P2S    ABASIS      S 
                                         1400     1410     1200     1210     1080     1600     1650     1300     1700     2100   
                                           T        V       H0       H01     AOSYM     SMH    MOLCAS    ERIS     OPER      RHF  

              2       5        2.77       700     1000      520     2100     5600   
                                         GEOM     BASIS   MCVARS     RHF     GINFO   

 PROGRAMS   *        TOTAL       RHF   CCSD(T)       RHF       INT
 CPU TIMES  *         1.18      0.47      0.06      0.02      0.12
 REAL TIME  *         3.09 SEC
 DISK USED  *        26.39 MB      
 **********************************************************************************************************************************


 PROGRAM * CCSD (Closed-shell coupled cluster)     Authors: C. Hampel, H.-J. Werner, 1991, M. Deegan, P.J. Knowles, 1992


 Convergence thresholds:  THRVAR = 1.00D-14  THRDEN = 1.00D-10

 CCSD(T)     terms to be evaluated (factor= 1.000)


 Number of core orbitals:           1 (   1   0   0   0 )
 Number of closed-shell orbitals:   4 (   2   1   1   0 )
 Number of external orbitals:      19 (   8   3   6   2 )

 Molecular orbitals read from record     2100.1  Type=RHF/CANONICAL (state 1.1)

 Number of N-1 electron functions:               4
 Number of N-2 electron functions:              10
 Number of singly external CSFs:                25
 Number of doubly external CSFs:               805
 Total number of CSFs:                         831

 Length of J-op  integral file:               0.00 MB
 Length of K-op  integral file:               0.04 MB
 Length of 3-ext integral record:             0.00 MB

 Memory could be reduced to 0.31 Mwords without degradation in triples

 Integral transformation finished. Total CPU:   0.00 sec, npass=  1  Memory used:   0.07 MW

 Reference energy:                    -76.02538691

 MP2 singlet pair energy:              -0.12650151
 MP2 triplet pair energy:              -0.07636872
 MP2 correlation energy:               -0.20287022
 MP2 total energy:                    -76.22825713

 SCS-MP2 correlation energy:           -0.19932012   (PS=  1.200000  PT=  0.333333)
 SCS-MP2 total energy:                -76.22470703

 ITER.      SQ.NORM     CORR.ENERGY   TOTAL ENERGY   ENERGY CHANGE        DEN1      VAR(S)    VAR(P)  DIIS     TIME  TIME/IT
   1      1.05375168    -0.21139256   -76.23677947    -0.00852234    -0.00483166  0.29D-03  0.71D-03  1  1     0.01     0.00
   2      1.05707610    -0.21236719   -76.23775410    -0.00097463    -0.00399343  0.58D-05  0.62D-04  2  2     0.01     0.00
   3      1.05793114    -0.21244752   -76.23783442    -0.00008033    -0.00063216  0.22D-05  0.25D-05  3  3     0.01     0.00
   4      1.05812851    -0.21245102   -76.23783792    -0.00000350    -0.00010472  0.16D-06  0.15D-06  4  4     0.01     0.00
   5      1.05816721    -0.21244947   -76.23783637     0.00000155    -0.00001711  0.42D-07  0.91D-08  5  5     0.01     0.00
   6      1.05817312    -0.21244940   -76.23783630     0.00000007     0.00000035  0.51D-08  0.10D-08  6  6     0.02     0.00
   7      1.05817629    -0.21244933   -76.23783624     0.00000007    -0.00000031  0.18D-09  0.84D-10  6  1     0.02     0.00
   8      1.05817671    -0.21244928   -76.23783619     0.00000005     0.00000008  0.49D-11  0.60D-11  6  2     0.02     0.00
   9      1.05817683    -0.21244927   -76.23783618     0.00000001    -0.00000006  0.11D-12  0.37D-12  6  3     0.02     0.00
  10      1.05817687    -0.21244927   -76.23783617     0.00000000    -0.00000003  0.26D-14  0.11D-13  6  4     0.02     0.00
  11      1.05817687    -0.21244927   -76.23783617     0.00000000    -0.00000000  0.25D-15  0.43D-15  6  6     0.02     0.00
  12      1.05817687    -0.21244927   -76.23783617     0.00000000    -0.00000000  0.53D-17  0.16D-16  6  5     0.02     0.00
  13      1.05817687    -0.21244927   -76.23783617     0.00000000    -0.00000000  0.12D-17  0.12D-17  6  1     0.03     0.00

 Norm of t1 vector:      0.02466831      S-energy:    -0.00000000      T1 diagnostic:  0.00616708
                                                                       D1 diagnostic:  0.01185365

 Doubles amplitudes (print threshold =  0.500E-01):

         I         J         SYM. A    SYM. B    A         B      T(IJ, AB)

         3         3         2         2         1         1     -0.05147063

 Total CPU time for triples:      0.00 sec


 RESULTS
 =======

  Reference energy                    -76.025386905220
  CCSD singlet pair energy             -0.144492477279
  CCSD triplet pair energy             -0.067956790748
  CCSD correlation energy              -0.212449268040

  Triples (T) contribution             -0.003116460054
  Total correlation energy             -0.215565728093

  CCSD total energy                   -76.237836173260
  CCSD[T] energy                      -76.241042486115
  CCSD-T energy                       -76.240895266581
 !CCSD(T) total energy                -76.240952633313

 Timing summary (sec):

 STEP                 CPU(USER)    SYS     CPU(TOT)    WALL
 CCSD iterations         0.03      0.01      0.04      0.02

 Program statistics:

 Available memory in ccsd:               999998800
 Min. memory needed in ccsd:                  5661
 Max. memory used in ccsd:                    6126
 Max. memory used in cckext:                 38485 (13 integral passes)



 **********************************************************************************************************************************
 DATASETS  * FILE   NREC   LENGTH (MB)   RECORD NAMES
              1      21       21.75       500      610      700      900      950      970     1000      129      960     1100   
                                          VAR    BASINP    GEOM    SYMINP    ZMAT    AOBASIS   BASIS     P2S    ABASIS      S 
                                         1400     1410     1200     1210     1080     1600     1650     1300     1700     2100   
                                           T        V       H0       H01     AOSYM     SMH    MOLCAS    ERIS     OPER      RHF  
                                         1380   
                                         JKOP   

              2       5        2.77       700     1000      520     2100     5600   
                                         GEOM     BASIS   MCVARS     RHF     GINFO   

 PROGRAMS   *        TOTAL   CCSD(T)   CCSD(T)       RHF       INT
 CPU TIMES  *         1.23      0.05      0.06      0.02      0.12
 REAL TIME  *         3.14 SEC
 DISK USED  *        26.39 MB      
 **********************************************************************************************************************************

 Tasks on processor    1 finished.  CPU=      0.58 sec, Elapsed=      0.57 sec. Waiting for other processors...
 Tasks on  12 processors finished.  CPU=      6.93 sec, Elapsed=      0.57 sec

 Numerical gradient for CCSD(T)

 Total Energy           -76.24071023  Dipole moments:    0.000000    0.000000    0.000000

 Variable       Value            Gradient       Hessian                Dipole gradient
 R1             0.980 ANG      0.05487296     3.42605612      0.000000    0.000000    0.000000

 Variable       Value            Gradient       Hessian                Dipole gradient
 A1           104.500 DEG      0.00016110     0.00004963      0.000000    0.000000    0.000000
 Reading points  1 to  1 from record 700.2,  wavefunction type=CCSD(T)         

 Making model hessian for Z-matrix coordinates
 No hessian update for point  1

 Entering Rational Function Geometry Optimization

 Optimization point 1

 Variable                      Last           Current        Next           Gradient       Hessian

 E(CCSD(T)) / Hartree        0.00000000   -76.24071023   -76.24122282
 R1 / ANGSTROM               0.00000000     0.98000000     0.96844345     0.05487296     4.73808314
 A1 / DEGREE                 0.00000000   104.50000000   102.50000000     0.00016110     0.00006630
 Convergence:                0.00000000  (line search)     0.04117522     0.03046932  (total)

 Geometry written to block  2 of record 700


 Recomputing integrals since geometry changed


 PROGRAM * SEWARD (Integral evaluation for generally contracted gaussian basis sets)     Author: Roland Lindh, 1990

 Geometry written to block  2 of record 700

 Orientation using atomic masses  
 Molecule type: Asymmetric top,     Order of principal axis = 2
 Symmetry elements: X,Y
 Rotational constants:     279.5588240    768.2433733    439.4843550 GHz  (calculated with average atomic masses)

 Point group  C2v 



 ATOMIC COORDINATES

 NR  ATOM    CHARGE       X              Y              Z

   1  O       8.00    0.000000000    0.000000000   -0.128179340
   2  H       1.00    0.000000000    1.427261049    1.017318757
   3  H       1.00    0.000000000   -1.427261049    1.017318757

 Bond lengths in Bohr (Angstrom)

 1-2  1.830092892  1-3  1.830092892
     ( 0.968443452)     ( 0.968443452)

 Bond angles

  2-1-3  102.50000000

 NUCLEAR CHARGE:                   10
 NUMBER OF PRIMITIVE AOS:          41
 NUMBER OF SYMMETRY AOS:           40
 NUMBER OF CONTRACTIONS:           24   (  11A1  +   4B1  +   7B2  +   2A2  )
 NUMBER OF CORE ORBITALS:           1   (   1A1  +   0B1  +   0B2  +   0A2  )
 NUMBER OF VALENCE ORBITALS:        6   (   3A1  +   1B1  +   2B2  +   0A2  )


 NUCLEAR REPULSION ENERGY    9.09304695

 Eigenvalues of metric

         1 0.177E-01 0.521E-01 0.161E+00 0.223E+00 0.527E+00 0.986E+00 0.101E+01 0.129E+01
         2 0.183E+00 0.531E+00 0.110E+01 0.223E+01
         3 0.463E-01 0.991E-01 0.173E+00 0.672E+00 0.101E+01 0.117E+01 0.254E+01
         4 0.630E+00 0.132E+01


 Contracted 2-electron integrals neglected if value below      1.0D-14
 AO integral compression algorithm  1   Integral accuracy      1.0D-14

     0.262 MB (compressed) written to integral file (100.0%)


 NUMBER OF SORTED TWO-ELECTRON INTEGRALS:      13826.     BUFFER LENGTH:  32768
 NUMBER OF SEGMENTS:   1  SEGMENT LENGTH:      13826      RECORD LENGTH: 524288

 Memory used in sort:       0.57 MW

 SORT1 READ       19290. AND WROTE       12665. INTEGRALS IN      1 RECORDS. CPU TIME:     0.00 SEC, REAL TIME:     0.00 SEC
 SORT2 READ       12665. AND WROTE       13826. INTEGRALS IN      1 RECORDS. CPU TIME:     0.00 SEC, REAL TIME:     0.01 SEC

 FILE SIZES:   FILE 1:    19.4 MBYTE,  FILE 4:     4.2 MBYTE,   TOTAL:     23.6 MBYTE

 OPERATOR DM      FOR CENTER  0  COORDINATES:    0.000000    0.000000    0.000000

 PROGRAM * RHF-SCF (CLOSED SHELL)       Authors: W. Meyer, H.-J. Werner


 NUMBER OF ELECTRONS:       5+    5-
 CONVERGENCE THRESHOLDS:    1.00E-10 (Density)    1.00E-11 (Energy)
 MAX. NUMBER OF ITERATIONS:       60
 INTERPOLATION TYPE:            DIIS
 INTERPOLATION STEPS:              2 (START)      1 (STEP)
 LEVEL SHIFTS:                  0.00 (CLOSED)  0.00 (OPEN) 

 Number of closed-shell orbitals:    5 (   3   1   1   0 )


 Molecular orbitals read from record     2100.2  Type=RHF/CANONICAL (state 1.1)

 Molecular orbital dump at record        2100.2

 ITERATION    DDIFF          GRAD             ENERGY        2-EL.EN.            DIPOLE MOMENTS         DIIS   ORB.
    1      0.000D+00      0.000D+00       -76.02584494     75.648338    0.00000    0.00000    0.82308    0    start
    2      0.000D+00      0.211D-02       -76.02598398     75.703204    0.00000    0.00000    0.82384    1    diag
    3      0.657D-02      0.434D-03       -76.02598963     75.676158    0.00000    0.00000    0.82395    2    diag
    4      0.134D-02      0.178D-03       -76.02599047     75.689398    0.00000    0.00000    0.82499    3    diag
    5      0.274D-03      0.299D-04       -76.02599051     75.688232    0.00000    0.00000    0.82506    4    diag
    6      0.630D-04      0.671D-05       -76.02599052     75.688289    0.00000    0.00000    0.82515    5    diag
    7      0.186D-04      0.187D-05       -76.02599052     75.688281    0.00000    0.00000    0.82517    6    diag
    8      0.612D-05      0.176D-06       -76.02599052     75.688283    0.00000    0.00000    0.82517    7    orth
    9      0.502D-06      0.247D-07       -76.02599052     75.688283    0.00000    0.00000    0.82517    8    diag
   10      0.663D-07      0.434D-08       -76.02599052     75.688283    0.00000    0.00000    0.82517    9    diag
   11      0.128D-07      0.384D-09       -76.02599052     75.688283    0.00000    0.00000    0.82517    9    diag
   12      0.108D-08      0.504D-10       -76.02599052     75.688283    0.00000    0.00000    0.82517    9    diag
   13      0.140D-09      0.570D-11       -76.02599052     75.688283    0.00000    0.00000    0.82517    9    diag
   14      0.140D-10      0.603D-12       -76.02599052     75.688283    0.00000    0.00000    0.82517    0    orth

 Final occupancy:   3   1   1   0

 !RHF STATE 1.1 Energy                -76.025990519158
 Nuclear energy                         9.09304695
 One-electron energy                 -122.96317877
 Two-electron energy                   37.84414130
 Virial quotient                       -1.00100895
 !RHF STATE 1.1 Dipole moment           0.00000000     0.00000000     0.82517358
 Dipole moment /Debye                   0.00000000     0.00000000     2.09724467

 Orbital energies:

         1.1          2.1          3.1          4.1          5.1
    -20.553505    -1.332670    -0.568622     0.183263     0.852779

         1.2          2.2          3.2
     -0.493102     1.199638     1.661447

         1.3          2.3          3.3
     -0.689548     0.254784     0.774731

         1.4          2.4
      1.480063     3.320427

 HOMO      1.2    -0.493102 =     -13.4180eV
 LUMO      4.1     0.183263 =       4.9869eV
 LUMO-HOMO         0.676366 =      18.4049eV


 **********************************************************************************************************************************
 DATASETS  * FILE   NREC   LENGTH (MB)   RECORD NAMES
              1      19       19.20       500      610      700      900      950      970     1000      129      960     1100   
                                          VAR    BASINP    GEOM    SYMINP    ZMAT    AOBASIS   BASIS     P2S    ABASIS      S 
                                         1400     1410     1200     1210     1080     1600     1650     1300     1700   
                                           T        V       H0       H01     AOSYM     SMH    MOLCAS    ERIS     OPER   

              2       5        2.77       700     1000      520     2100     5600   
                                         GEOM     BASIS   MCVARS     RHF     GINFO   

 PROGRAMS   *        TOTAL       RHF   CCSD(T)       RHF       INT
 CPU TIMES  *         1.71      0.48      0.06      0.02      0.12
 REAL TIME  *         3.65 SEC
 DISK USED  *        26.39 MB      
 **********************************************************************************************************************************


 PROGRAM * CCSD (Closed-shell coupled cluster)     Authors: C. Hampel, H.-J. Werner, 1991, M. Deegan, P.J. Knowles, 1992


 Convergence thresholds:  THRVAR = 1.00D-14  THRDEN = 1.00D-10

 CCSD(T)     terms to be evaluated (factor= 1.000)


 Number of core orbitals:           1 (   1   0   0   0 )
 Number of closed-shell orbitals:   4 (   2   1   1   0 )
 Number of external orbitals:      19 (   8   3   6   2 )

 Molecular orbitals read from record     2100.2  Type=RHF/CANONICAL (state 1.1)

 Number of N-1 electron functions:               4
 Number of N-2 electron functions:              10
 Number of singly external CSFs:                25
 Number of doubly external CSFs:               805
 Total number of CSFs:                         831

 Length of J-op  integral file:               0.00 MB
 Length of K-op  integral file:               0.04 MB
 Length of 3-ext integral record:             0.00 MB

 Memory could be reduced to 0.31 Mwords without degradation in triples

 Integral transformation finished. Total CPU:   0.00 sec, npass=  1  Memory used:   0.07 MW

 Reference energy:                    -76.02599052

 MP2 singlet pair energy:              -0.12628402
 MP2 triplet pair energy:              -0.07635373
 MP2 correlation energy:               -0.20263775
 MP2 total energy:                    -76.22862827

 SCS-MP2 correlation energy:           -0.19904981   (PS=  1.200000  PT=  0.333333)
 SCS-MP2 total energy:                -76.22504033

 ITER.      SQ.NORM     CORR.ENERGY   TOTAL ENERGY   ENERGY CHANGE        DEN1      VAR(S)    VAR(P)  DIIS     TIME  TIME/IT
   1      1.05348946    -0.21115207   -76.23714258    -0.00851431    -0.00486056  0.29D-03  0.69D-03  1  1     0.00     0.00
   2      1.05675099    -0.21210702   -76.23809754    -0.00095496    -0.00395281  0.55D-05  0.60D-04  2  2     0.00     0.00
   3      1.05757760    -0.21218470   -76.23817522    -0.00007768    -0.00061707  0.21D-05  0.25D-05  3  3     0.01     0.00
   4      1.05776673    -0.21218786   -76.23817838    -0.00000316    -0.00010177  0.13D-06  0.14D-06  4  4     0.01     0.00
   5      1.05780249    -0.21218635   -76.23817687     0.00000151    -0.00001627  0.36D-07  0.81D-08  5  5     0.01     0.00
   6      1.05780757    -0.21218628   -76.23817680     0.00000007     0.00000037  0.45D-08  0.88D-09  6  6     0.01     0.00
   7      1.05781040    -0.21218622   -76.23817674     0.00000006    -0.00000028  0.17D-09  0.74D-10  6  1     0.01     0.00
   8      1.05781079    -0.21218617   -76.23817669     0.00000005     0.00000008  0.45D-11  0.52D-11  6  2     0.01     0.00
   9      1.05781090    -0.21218616   -76.23817668     0.00000001    -0.00000006  0.10D-12  0.32D-12  6  3     0.01     0.00
  10      1.05781093    -0.21218616   -76.23817668     0.00000000    -0.00000002  0.22D-14  0.93D-14  6  4     0.02     0.00
  11      1.05781094    -0.21218616   -76.23817668     0.00000000    -0.00000000  0.19D-15  0.36D-15  6  6     0.02     0.00
  12      1.05781094    -0.21218616   -76.23817668     0.00000000    -0.00000000  0.32D-17  0.14D-16  6  5     0.02     0.00

 Norm of t1 vector:      0.02435156      S-energy:     0.00000000      T1 diagnostic:  0.00608789
                                                                       D1 diagnostic:  0.01151957

 Doubles amplitudes (print threshold =  0.500E-01):

         I         J         SYM. A    SYM. B    A         B      T(IJ, AB)

         3         3         2         2         1         1     -0.05144019

 Total CPU time for triples:      0.00 sec


 RESULTS
 =======

  Reference energy                    -76.025990519158
  CCSD singlet pair energy             -0.144163429629
  CCSD triplet pair energy             -0.068022728720
  CCSD correlation energy              -0.212186158345

  Triples (T) contribution             -0.003107638485
  Total correlation energy             -0.215293796830

  CCSD total energy                   -76.238176677504
  CCSD[T] energy                      -76.241373336230
  CCSD-T energy                       -76.241227275916
 !CCSD(T) total energy                -76.241284315988

 Timing summary (sec):

 STEP                 CPU(USER)    SYS     CPU(TOT)    WALL
 CCSD iterations         0.02      0.00      0.02      0.03

 Program statistics:

 Available memory in ccsd:               999998927
 Min. memory needed in ccsd:                  5661
 Max. memory used in ccsd:                    6126
 Max. memory used in cckext:                 38485 (12 integral passes)



 **********************************************************************************************************************************
 DATASETS  * FILE   NREC   LENGTH (MB)   RECORD NAMES
              1      20       19.26       500      610      700      900      950      970     1000      129      960     1100   
                                          VAR    BASINP    GEOM    SYMINP    ZMAT    AOBASIS   BASIS     P2S    ABASIS      S 
                                         1400     1410     1200     1210     1080     1600     1650     1300     1700     1380   
                                           T        V       H0       H01     AOSYM     SMH    MOLCAS    ERIS     OPER     JKOP   

              2       5        2.77       700     1000      520     2100     5600   
                                         GEOM     BASIS   MCVARS     RHF     GINFO   

 PROGRAMS   *        TOTAL   CCSD(T)   CCSD(T)       RHF       INT
 CPU TIMES  *         1.75      0.03      0.06      0.02      0.12
 REAL TIME  *         3.70 SEC
 DISK USED  *        26.39 MB      
 **********************************************************************************************************************************

 ITER.   ENERGY(OLD)    ENERGY(NEW)      DE          GRADMAX     GRADNORM    GRADRMS     STEPMAX     STEPLEN     STEPRMS   CPU-time
   1   -76.24071023   -76.24128432    -0.00057409  0.02903752  0.03046932  0.02154506  0.03490659  0.04117522  0.02058761      1.05

 Current geometry (xyz format, in Angstrom)

    3
 CCSD(T)/CC-PVDZ  ENERGY=-76.24128432
 O          0.0000000000        0.0000000000       -0.0678295858
 H          0.0000000000        0.7552740213        0.5383419026
 H          0.0000000000       -0.7552740213        0.5383419026

 **********************************************************************************************************************************

 Current variables
 R1=                  0.96844345 ANGSTROM
 A1=                102.50000000 DEGREE

 **********************************************************************************************************************************
 

 Number of displacements for numerical gradient:      4

 Starting task   2 Incrementing variable R1       by  -0.00529 ANG to    0.96315 ANG. CPU=    0.11 sec, Elapsed=    0.11 sec


 Recomputing integrals since geometry changed


 PROGRAM * SEWARD (Integral evaluation for generally contracted gaussian basis sets)     Author: Roland Lindh, 1990

 Geometry written to block  2 of record 700

 Orientation using atomic masses  
 Molecule type: Asymmetric top,     Order of principal axis = 2
 Symmetry elements: X,Y
 Rotational constants:     282.6391811    776.7083679    444.3268735 GHz  (calculated with average atomic masses)

 Point group  C2v 



 ATOMIC COORDINATES

 NR  ATOM    CHARGE       X              Y              Z

   1  O       8.00    0.000000000    0.000000000   -0.127478942
   2  H       1.00    0.000000000    1.419462204    1.011759921
   3  H       1.00    0.000000000   -1.419462204    1.011759921

 Bond lengths in Bohr (Angstrom)

 1-2  1.820092892  1-3  1.820092892
     ( 0.963151680)     ( 0.963151680)

 Bond angles

  2-1-3  102.50000000

 NUCLEAR CHARGE:                   10
 NUMBER OF PRIMITIVE AOS:          41
 NUMBER OF SYMMETRY AOS:           40
 NUMBER OF CONTRACTIONS:           24   (  11A1  +   4B1  +   7B2  +   2A2  )
 NUMBER OF CORE ORBITALS:           1   (   1A1  +   0B1  +   0B2  +   0A2  )
 NUMBER OF VALENCE ORBITALS:        6   (   3A1  +   1B1  +   2B2  +   0A2  )


 NUCLEAR REPULSION ENERGY    9.14300620

 Eigenvalues of metric

         1 0.176E-01 0.514E-01 0.160E+00 0.223E+00 0.522E+00 0.986E+00 0.101E+01 0.129E+01
         2 0.183E+00 0.526E+00 0.110E+01 0.224E+01
         3 0.456E-01 0.987E-01 0.171E+00 0.667E+00 0.101E+01 0.116E+01 0.254E+01
         4 0.625E+00 0.132E+01


 Contracted 2-electron integrals neglected if value below      1.0D-14
 AO integral compression algorithm  1   Integral accuracy      1.0D-14

     0.262 MB (compressed) written to integral file (100.0%)


 NUMBER OF SORTED TWO-ELECTRON INTEGRALS:      13826.     BUFFER LENGTH:  32768
 NUMBER OF SEGMENTS:   1  SEGMENT LENGTH:      13826      RECORD LENGTH: 524288

 Memory used in sort:       0.57 MW

 SORT1 READ       19290. AND WROTE       12665. INTEGRALS IN      1 RECORDS. CPU TIME:     0.00 SEC, REAL TIME:     0.00 SEC
 SORT2 READ       12665. AND WROTE       13826. INTEGRALS IN      1 RECORDS. CPU TIME:     0.00 SEC, REAL TIME:     0.01 SEC

 FILE SIZES:   FILE 1:    19.4 MBYTE,  FILE 4:     4.2 MBYTE,   TOTAL:     23.6 MBYTE

 OPERATOR DM      FOR CENTER  0  COORDINATES:    0.000000    0.000000    0.000000

 PROGRAM * RHF-SCF (CLOSED SHELL)       Authors: W. Meyer, H.-J. Werner


 NUMBER OF ELECTRONS:       5+    5-
 CONVERGENCE THRESHOLDS:    1.00E-10 (Density)    1.00E-11 (Energy)
 MAX. NUMBER OF ITERATIONS:       60
 INTERPOLATION TYPE:            DIIS
 INTERPOLATION STEPS:              2 (START)      1 (STEP)
 LEVEL SHIFTS:                  0.00 (CLOSED)  0.00 (OPEN) 

 Number of closed-shell orbitals:    5 (   3   1   1   0 )


 Molecular orbitals read from record     2100.2  Type=RHF/CANONICAL (state 1.1)

 Molecular orbital dump at record        2100.1

 ITERATION    DDIFF          GRAD             ENERGY        2-EL.EN.            DIPOLE MOMENTS         DIIS   ORB.
    1      0.000D+00      0.000D+00       -76.02637652     75.743861    0.00000    0.00000    0.82241    0    start
    2      0.000D+00      0.722D-03       -76.02639389     75.773313    0.00000    0.00000    0.82220    1    diag
    3      0.218D-02      0.199D-03       -76.02639510     75.760232    0.00000    0.00000    0.82232    2    diag
    4      0.469D-03      0.810D-04       -76.02639533     75.766311    0.00000    0.00000    0.82299    3    diag
    5      0.134D-03      0.196D-04       -76.02639536     75.765719    0.00000    0.00000    0.82310    4    diag
    6      0.439D-04      0.482D-05       -76.02639536     75.765746    0.00000    0.00000    0.82318    5    diag
    7      0.150D-04      0.905D-06       -76.02639536     75.765742    0.00000    0.00000    0.82319    6    diag
    8      0.270D-05      0.113D-06       -76.02639536     75.765743    0.00000    0.00000    0.82319    7    orth
    9      0.299D-06      0.182D-07       -76.02639536     75.765743    0.00000    0.00000    0.82319    8    diag
   10      0.514D-07      0.166D-08       -76.02639536     75.765743    0.00000    0.00000    0.82319    9    diag
   11      0.478D-08      0.234D-09       -76.02639536     75.765743    0.00000    0.00000    0.82319    9    diag
   12      0.576D-09      0.303D-10       -76.02639536     75.765743    0.00000    0.00000    0.82319    9    diag
   13      0.769D-10      0.193D-11       -76.02639536     75.765743    0.00000    0.00000    0.82319    0    orth

 Final occupancy:   3   1   1   0

 !RHF STATE 1.1 Energy                -76.026395359112
 Nuclear energy                         9.14300620
 One-electron energy                 -123.05227323
 Two-electron energy                   37.88287168
 Virial quotient                       -1.00075301
 !RHF STATE 1.1 Dipole moment           0.00000000     0.00000000     0.82318523
 Dipole moment /Debye                   0.00000000     0.00000000     2.09219113

 Orbital energies:

         1.1          2.1          3.1          4.1          5.1
    -20.552568    -1.335317    -0.569611     0.184154     0.857754

         1.2          2.2          3.2
     -0.493462     1.199770     1.662261

         1.3          2.3          3.3
     -0.692308     0.255603     0.778397

         1.4          2.4
      1.481458     3.325523

 HOMO      1.2    -0.493462 =     -13.4278eV
 LUMO      4.1     0.184154 =       5.0111eV
 LUMO-HOMO         0.677616 =      18.4389eV


 **********************************************************************************************************************************
 DATASETS  * FILE   NREC   LENGTH (MB)   RECORD NAMES
              1      20       21.68       500      610      700      900      950      970     1000      129      960     1100   
                                          VAR    BASINP    GEOM    SYMINP    ZMAT    AOBASIS   BASIS     P2S    ABASIS      S 
                                         1400     1410     1200     1210     1080     1600     1650     1300     1700     2100   
                                           T        V       H0       H01     AOSYM     SMH    MOLCAS    ERIS     OPER      RHF  

              2       5        2.77       700     1000      520     2100     5600   
                                         GEOM     BASIS   MCVARS     RHF     GINFO   

 PROGRAMS   *        TOTAL       RHF   CCSD(T)       RHF       INT
 CPU TIMES  *         2.33      0.47      0.06      0.02      0.12
 REAL TIME  *         4.31 SEC
 DISK USED  *        26.39 MB      
 **********************************************************************************************************************************


 PROGRAM * CCSD (Closed-shell coupled cluster)     Authors: C. Hampel, H.-J. Werner, 1991, M. Deegan, P.J. Knowles, 1992


 Convergence thresholds:  THRVAR = 1.00D-14  THRDEN = 1.00D-10

 CCSD(T)     terms to be evaluated (factor= 1.000)


 Number of core orbitals:           1 (   1   0   0   0 )
 Number of closed-shell orbitals:   4 (   2   1   1   0 )
 Number of external orbitals:      19 (   8   3   6   2 )

 Molecular orbitals read from record     2100.1  Type=RHF/CANONICAL (state 1.1)

 Number of N-1 electron functions:               4
 Number of N-2 electron functions:              10
 Number of singly external CSFs:                25
 Number of doubly external CSFs:               805
 Total number of CSFs:                         831

 Length of J-op  integral file:               0.00 MB
 Length of K-op  integral file:               0.04 MB
 Length of 3-ext integral record:             0.00 MB

 Memory could be reduced to 0.31 Mwords without degradation in triples

 Integral transformation finished. Total CPU:   0.00 sec, npass=  1  Memory used:   0.07 MW

 Reference energy:                    -76.02639536

 MP2 singlet pair energy:              -0.12599744
 MP2 triplet pair energy:              -0.07626095
 MP2 correlation energy:               -0.20225839
 MP2 total energy:                    -76.22865375

 SCS-MP2 correlation energy:           -0.19864819   (PS=  1.200000  PT=  0.333333)
 SCS-MP2 total energy:                -76.22504355

 ITER.      SQ.NORM     CORR.ENERGY   TOTAL ENERGY   ENERGY CHANGE        DEN1      VAR(S)    VAR(P)  DIIS     TIME  TIME/IT
   1      1.05318987    -0.21078740   -76.23718276    -0.00852901    -0.00491646  0.28D-03  0.68D-03  1  1     0.00     0.00
   2      1.05639148    -0.21172679   -76.23812215    -0.00093939    -0.00391236  0.53D-05  0.58D-04  2  2     0.00     0.00
   3      1.05719085    -0.21180228   -76.23819764    -0.00007549    -0.00060219  0.20D-05  0.24D-05  3  3     0.00     0.00
   4      1.05737213    -0.21180517   -76.23820053    -0.00000289    -0.00009860  0.12D-06  0.13D-06  4  4     0.01     0.00
   5      1.05740588    -0.21180370   -76.23819906     0.00000147    -0.00001563  0.33D-07  0.75D-08  5  5     0.01     0.00
   6      1.05741053    -0.21180363   -76.23819899     0.00000006     0.00000038  0.42D-08  0.81D-09  6  6     0.01     0.00
   7      1.05741319    -0.21180358   -76.23819894     0.00000006    -0.00000026  0.16D-09  0.68D-10  6  1     0.01     0.00
   8      1.05741356    -0.21180353   -76.23819889     0.00000005     0.00000007  0.41D-11  0.48D-11  6  2     0.01     0.00
   9      1.05741366    -0.21180352   -76.23819888     0.00000001    -0.00000005  0.97D-13  0.29D-12  6  3     0.01     0.00
  10      1.05741369    -0.21180352   -76.23819888     0.00000000    -0.00000002  0.20D-14  0.83D-14  6  4     0.01     0.00
  11      1.05741370    -0.21180352   -76.23819888     0.00000000    -0.00000000  0.16D-15  0.32D-15  6  6     0.02     0.00
  12      1.05741370    -0.21180352   -76.23819888     0.00000000    -0.00000000  0.27D-17  0.12D-16  6  5     0.02     0.00

 Norm of t1 vector:      0.02400731      S-energy:     0.00000000      T1 diagnostic:  0.00600183
                                                                       D1 diagnostic:  0.01130031

 Doubles amplitudes (print threshold =  0.500E-01):

         I         J         SYM. A    SYM. B    A         B      T(IJ, AB)

         3         3         2         2         1         1     -0.05141971

 Total CPU time for triples:      0.00 sec


 RESULTS
 =======

  Reference energy                    -76.026395359112
  CCSD singlet pair energy             -0.143780851914
  CCSD triplet pair energy             -0.068022664910
  CCSD correlation energy              -0.211803516817

  Triples (T) contribution             -0.003082427776
  Total correlation energy             -0.214885944594

  CCSD total energy                   -76.238198875929
  CCSD[T] energy                      -76.241368805355
  CCSD-T energy                       -76.241225116714
 !CCSD(T) total energy                -76.241281303705

 Timing summary (sec):

 STEP                 CPU(USER)    SYS     CPU(TOT)    WALL
 CCSD iterations         0.02      0.01      0.03      0.03

 Program statistics:

 Available memory in ccsd:               999998800
 Min. memory needed in ccsd:                  5661
 Max. memory used in ccsd:                    6126
 Max. memory used in cckext:                 38485 (12 integral passes)



 **********************************************************************************************************************************
 DATASETS  * FILE   NREC   LENGTH (MB)   RECORD NAMES
              1      21       21.75       500      610      700      900      950      970     1000      129      960     1100   
                                          VAR    BASINP    GEOM    SYMINP    ZMAT    AOBASIS   BASIS     P2S    ABASIS      S 
                                         1400     1410     1200     1210     1080     1600     1650     1300     1700     2100   
                                           T        V       H0       H01     AOSYM     SMH    MOLCAS    ERIS     OPER      RHF  
                                         1380   
                                         JKOP   

              2       5        2.77       700     1000      520     2100     5600   
                                         GEOM     BASIS   MCVARS     RHF     GINFO   

 PROGRAMS   *        TOTAL   CCSD(T)   CCSD(T)       RHF       INT
 CPU TIMES  *         2.37      0.04      0.06      0.02      0.12
 REAL TIME  *         4.36 SEC
 DISK USED  *        26.39 MB      
 **********************************************************************************************************************************

 Tasks on processor    1 finished.  CPU=      0.67 sec, Elapsed=      0.66 sec. Waiting for other processors...
 Tasks on  12 processors finished.  CPU=      7.91 sec, Elapsed=      0.66 sec

 Numerical gradient for CCSD(T)

 Total Energy           -76.24128432  Dipole moments:    0.000000    0.000000    0.000000

 Variable       Value            Gradient       Hessian                Dipole gradient
 R1             0.968 ANG      0.00932396     3.73908799      0.000000    0.000000    0.000000

 Variable       Value            Gradient       Hessian                Dipole gradient
 A1           102.500 DEG      0.00003536     0.00005207      0.000000    0.000000    0.000000
 Reading points  1 to  2 from record 700.2,  wavefunction type=CCSD(T)         

 Making model hessian for Z-matrix coordinates
 BFGS update of hessian using  1 points

 Entering Rational Function Geometry Optimization

 Optimization point 2

 Variable                      Last           Current        Next           Gradient       Hessian

 E(CCSD(T)) / Hartree      -76.24071023   -76.24128432   -76.24130522
 R1 / ANGSTROM               0.98000000     0.96844345     0.96603894     0.00932396     4.14260966
 A1 / DEGREE               104.50000000   102.50000000   101.95180276     0.00003536     0.00006959
 Convergence:                0.00000000  (line search)     0.01059200     0.00533378  (total)

 Geometry written to block  3 of record 700


 Recomputing integrals since geometry changed


 PROGRAM * SEWARD (Integral evaluation for generally contracted gaussian basis sets)     Author: Roland Lindh, 1990

 Geometry written to block  3 of record 700

 Orientation using atomic masses  
 Molecule type: Asymmetric top,     Order of principal axis = 2
 Symmetry elements: X,Y
 Rotational constants:     281.1060328    762.9674499    445.0963398 GHz  (calculated with average atomic masses)

 Point group  C2v 



 ATOMIC COORDINATES

 NR  ATOM    CHARGE       X              Y              Z

   1  O       8.00    0.000000000    0.000000000   -0.128621757
   2  H       1.00    0.000000000    1.418234716    1.020830079
   3  H       1.00    0.000000000   -1.418234716    1.020830079

 Bond lengths in Bohr (Angstrom)

 1-2  1.825549023  1-3  1.825549023
     ( 0.966038940)     ( 0.966038940)

 Bond angles

  2-1-3  101.95180276

 NUCLEAR CHARGE:                   10
 NUMBER OF PRIMITIVE AOS:          41
 NUMBER OF SYMMETRY AOS:           40
 NUMBER OF CONTRACTIONS:           24   (  11A1  +   4B1  +   7B2  +   2A2  )
 NUMBER OF CORE ORBITALS:           1   (   1A1  +   0B1  +   0B2  +   0A2  )
 NUMBER OF VALENCE ORBITALS:        6   (   3A1  +   1B1  +   2B2  +   0A2  )


 NUCLEAR REPULSION ENERGY    9.11703758

 Eigenvalues of metric

         1 0.176E-01 0.517E-01 0.160E+00 0.223E+00 0.526E+00 0.986E+00 0.101E+01 0.129E+01
         2 0.183E+00 0.528E+00 0.111E+01 0.224E+01
         3 0.461E-01 0.988E-01 0.172E+00 0.668E+00 0.101E+01 0.116E+01 0.254E+01
         4 0.629E+00 0.132E+01


 Contracted 2-electron integrals neglected if value below      1.0D-14
 AO integral compression algorithm  1   Integral accuracy      1.0D-14

     0.262 MB (compressed) written to integral file (100.0%)


 NUMBER OF SORTED TWO-ELECTRON INTEGRALS:      13826.     BUFFER LENGTH:  32768
 NUMBER OF SEGMENTS:   1  SEGMENT LENGTH:      13826      RECORD LENGTH: 524288

 Memory used in sort:       0.57 MW

 SORT1 READ       19290. AND WROTE       12665. INTEGRALS IN      1 RECORDS. CPU TIME:     0.00 SEC, REAL TIME:     0.00 SEC
 SORT2 READ       12665. AND WROTE       13826. INTEGRALS IN      1 RECORDS. CPU TIME:     0.01 SEC, REAL TIME:     0.01 SEC

 FILE SIZES:   FILE 1:    19.4 MBYTE,  FILE 4:     4.2 MBYTE,   TOTAL:     23.6 MBYTE

 OPERATOR DM      FOR CENTER  0  COORDINATES:    0.000000    0.000000    0.000000

 PROGRAM * RHF-SCF (CLOSED SHELL)       Authors: W. Meyer, H.-J. Werner


 NUMBER OF ELECTRONS:       5+    5-
 CONVERGENCE THRESHOLDS:    1.00E-10 (Density)    1.00E-11 (Energy)
 MAX. NUMBER OF ITERATIONS:       60
 INTERPOLATION TYPE:            DIIS
 INTERPOLATION STEPS:              2 (START)      1 (STEP)
 LEVEL SHIFTS:                  0.00 (CLOSED)  0.00 (OPEN) 

 Number of closed-shell orbitals:    5 (   3   1   1   0 )


 Molecular orbitals read from record     2100.2  Type=RHF/CANONICAL (state 1.1)

 Molecular orbital dump at record        2100.2

 ITERATION    DDIFF          GRAD             ENERGY        2-EL.EN.            DIPOLE MOMENTS         DIIS   ORB.
    1      0.000D+00      0.000D+00       -76.02612780     75.714387    0.00000    0.00000    0.82703    0    start
    2      0.000D+00      0.507D-03       -76.02613599     75.724933    0.00000    0.00000    0.82725    1    diag
    3      0.159D-02      0.979D-04       -76.02613630     75.719568    0.00000    0.00000    0.82727    2    diag
    4      0.328D-03      0.367D-04       -76.02613634     75.722275    0.00000    0.00000    0.82746    3    diag
    5      0.567D-04      0.600D-05       -76.02613634     75.721999    0.00000    0.00000    0.82746    4    diag
    6      0.125D-04      0.108D-05       -76.02613634     75.722013    0.00000    0.00000    0.82748    5    diag
    7      0.277D-05      0.337D-06       -76.02613634     75.722012    0.00000    0.00000    0.82748    6    diag
    8      0.111D-05      0.354D-07       -76.02613634     75.722012    0.00000    0.00000    0.82748    7    orth
    9      0.109D-06      0.316D-08       -76.02613634     75.722012    0.00000    0.00000    0.82748    8    diag
   10      0.825D-08      0.654D-09       -76.02613634     75.722012    0.00000    0.00000    0.82748    9    diag
   11      0.190D-08      0.869D-10       -76.02613634     75.722012    0.00000    0.00000    0.82748    9    diag
   12      0.233D-09      0.944D-11       -76.02613634     75.722012    0.00000    0.00000    0.82748    9    diag
   13      0.271D-10      0.810D-12       -76.02613634     75.722012    0.00000    0.00000    0.82748    0    orth

 Final occupancy:   3   1   1   0

 !RHF STATE 1.1 Energy                -76.026136339245
 Nuclear energy                         9.11703758
 One-electron energy                 -123.00417978
 Two-electron energy                   37.86100586
 Virial quotient                       -1.00088183
 !RHF STATE 1.1 Dipole moment           0.00000000     0.00000000     0.82748000
 Dipole moment /Debye                   0.00000000     0.00000000     2.10310661

 Orbital energies:

         1.1          2.1          3.1          4.1          5.1
    -20.553375    -1.334307    -0.570198     0.183549     0.857407

         1.2          2.2          3.2
     -0.493463     1.199558     1.658680

         1.3          2.3          3.3
     -0.689742     0.255216     0.774634

         1.4          2.4
      1.482577     3.320691

 HOMO      1.2    -0.493463 =     -13.4278eV
 LUMO      4.1     0.183549 =       4.9946eV
 LUMO-HOMO         0.677012 =      18.4224eV


 **********************************************************************************************************************************
 DATASETS  * FILE   NREC   LENGTH (MB)   RECORD NAMES
              1      19       19.20       500      610      700      900      950      970     1000      129      960     1100   
                                          VAR    BASINP    GEOM    SYMINP    ZMAT    AOBASIS   BASIS     P2S    ABASIS      S 
                                         1400     1410     1200     1210     1080     1600     1650     1300     1700   
                                           T        V       H0       H01     AOSYM     SMH    MOLCAS    ERIS     OPER   

              2       5        2.77       700     1000      520     2100     5600   
                                         GEOM     BASIS   MCVARS     RHF     GINFO   

 PROGRAMS   *        TOTAL       RHF   CCSD(T)       RHF       INT
 CPU TIMES  *         2.82      0.45      0.06      0.02      0.12
 REAL TIME  *         4.87 SEC
 DISK USED  *        26.39 MB      
 **********************************************************************************************************************************


 PROGRAM * CCSD (Closed-shell coupled cluster)     Authors: C. Hampel, H.-J. Werner, 1991, M. Deegan, P.J. Knowles, 1992


 Convergence thresholds:  THRVAR = 1.00D-14  THRDEN = 1.00D-10

 CCSD(T)     terms to be evaluated (factor= 1.000)


 Number of core orbitals:           1 (   1   0   0   0 )
 Number of closed-shell orbitals:   4 (   2   1   1   0 )
 Number of external orbitals:      19 (   8   3   6   2 )

 Molecular orbitals read from record     2100.2  Type=RHF/CANONICAL (state 1.1)

 Number of N-1 electron functions:               4
 Number of N-2 electron functions:              10
 Number of singly external CSFs:                25
 Number of doubly external CSFs:               805
 Total number of CSFs:                         831

 Length of J-op  integral file:               0.00 MB
 Length of K-op  integral file:               0.04 MB
 Length of 3-ext integral record:             0.00 MB

 Memory could be reduced to 0.31 Mwords without degradation in triples

 Integral transformation finished. Total CPU:   0.00 sec, npass=  1  Memory used:   0.07 MW

 Reference energy:                    -76.02613634

 MP2 singlet pair energy:              -0.12618767
 MP2 triplet pair energy:              -0.07633973
 MP2 correlation energy:               -0.20252740
 MP2 total energy:                    -76.22866374

 SCS-MP2 correlation energy:           -0.19892548   (PS=  1.200000  PT=  0.333333)
 SCS-MP2 total energy:                -76.22506182

 ITER.      SQ.NORM     CORR.ENERGY   TOTAL ENERGY   ENERGY CHANGE        DEN1      VAR(S)    VAR(P)  DIIS     TIME  TIME/IT
   1      1.05337965    -0.21104072   -76.23717705    -0.00851331    -0.00487495  0.29D-03  0.69D-03  1  1     0.01     0.00
   2      1.05661647    -0.21198832   -76.23812466    -0.00094761    -0.00393645  0.54D-05  0.60D-04  2  2     0.01     0.00
   3      1.05743201    -0.21206502   -76.23820136    -0.00007670    -0.00061110  0.21D-05  0.24D-05  3  3     0.01     0.00
   4      1.05761799    -0.21206805   -76.23820439    -0.00000303    -0.00010058  0.13D-06  0.14D-06  4  4     0.01     0.00
   5      1.05765275    -0.21206655   -76.23820289     0.00000150    -0.00001597  0.34D-07  0.78D-08  5  5     0.01     0.00
   6      1.05765756    -0.21206649   -76.23820282     0.00000007     0.00000037  0.43D-08  0.84D-09  6  6     0.01     0.00
   7      1.05766029    -0.21206643   -76.23820277     0.00000006    -0.00000027  0.16D-09  0.70D-10  6  1     0.01     0.00
   8      1.05766066    -0.21206638   -76.23820272     0.00000005     0.00000007  0.43D-11  0.50D-11  6  2     0.02     0.00
   9      1.05766077    -0.21206637   -76.23820271     0.00000001    -0.00000006  0.10D-12  0.31D-12  6  3     0.02     0.00
  10      1.05766080    -0.21206637   -76.23820271     0.00000000    -0.00000002  0.21D-14  0.88D-14  6  4     0.02     0.00
  11      1.05766080    -0.21206637   -76.23820271     0.00000000    -0.00000000  0.18D-15  0.34D-15  6  6     0.02     0.00
  12      1.05766080    -0.21206637   -76.23820271     0.00000000    -0.00000000  0.28D-17  0.13D-16  6  5     0.02     0.00

 Norm of t1 vector:      0.02422585      S-energy:     0.00000000      T1 diagnostic:  0.00605646
                                                                       D1 diagnostic:  0.01140330

 Doubles amplitudes (print threshold =  0.500E-01):

         I         J         SYM. A    SYM. B    A         B      T(IJ, AB)

         3         3         2         2         1         1     -0.05142810

 Total CPU time for triples:      0.01 sec


 RESULTS
 =======

  Reference energy                    -76.026136339245
  CCSD singlet pair energy             -0.144023863157
  CCSD triplet pair energy             -0.068042504314
  CCSD correlation energy              -0.212066367465

  Triples (T) contribution             -0.003102193260
  Total correlation energy             -0.215168560725

  CCSD total energy                   -76.238202706709
  CCSD[T] energy                      -76.241393515608
  CCSD-T energy                       -76.241248052395
 !CCSD(T) total energy                -76.241304899969

 Timing summary (sec):

 STEP                 CPU(USER)    SYS     CPU(TOT)    WALL
 CCSD iterations         0.02      0.00      0.02      0.02
 Triples                 0.01      0.00      0.01      0.01

 Program statistics:

 Available memory in ccsd:               999998927
 Min. memory needed in ccsd:                  5661
 Max. memory used in ccsd:                    6126
 Max. memory used in cckext:                 38485 (12 integral passes)



 **********************************************************************************************************************************
 DATASETS  * FILE   NREC   LENGTH (MB)   RECORD NAMES
              1      20       19.26       500      610      700      900      950      970     1000      129      960     1100   
                                          VAR    BASINP    GEOM    SYMINP    ZMAT    AOBASIS   BASIS     P2S    ABASIS      S 
                                         1400     1410     1200     1210     1080     1600     1650     1300     1700     1380   
                                           T        V       H0       H01     AOSYM     SMH    MOLCAS    ERIS     OPER     JKOP   

              2       5        2.77       700     1000      520     2100     5600   
                                         GEOM     BASIS   MCVARS     RHF     GINFO   

 PROGRAMS   *        TOTAL   CCSD(T)   CCSD(T)       RHF       INT
 CPU TIMES  *         2.87      0.05      0.06      0.02      0.12
 REAL TIME  *         4.93 SEC
 DISK USED  *        26.39 MB      
 **********************************************************************************************************************************
   2   -76.24128432   -76.24130490    -0.00002058  0.00493403  0.00533378  0.00377155  0.00956785  0.01059200  0.00529600      2.17

 Current geometry (xyz format, in Angstrom)

    3
 CCSD(T)/CC-PVDZ  ENERGY=-76.24130490
 O          0.0000000000        0.0000000000       -0.0680637027
 H          0.0000000000        0.7504974917        0.5402000143
 H          0.0000000000       -0.7504974917        0.5402000143

 **********************************************************************************************************************************

 Current variables
 R1=                  0.96603894 ANGSTROM
 A1=                101.95180276 DEGREE

 **********************************************************************************************************************************
 

 Number of displacements for numerical gradient:      4

 Starting task   4 Incrementing variable A1       by  -1.00000 DEG to  100.95180 DEG. CPU=    0.12 sec, Elapsed=    0.12 sec


 Recomputing integrals since geometry changed


 PROGRAM * SEWARD (Integral evaluation for generally contracted gaussian basis sets)     Author: Roland Lindh, 1990

 Geometry written to block  3 of record 700

 Orientation using atomic masses  
 Molecule type: Asymmetric top,     Order of principal axis = 2
 Symmetry elements: X,Y
 Rotational constants:     281.3878352    746.8554035    451.4944531 GHz  (calculated with average atomic masses)

 Point group  C2v 



 ATOMIC COORDINATES

 NR  ATOM    CHARGE       X              Y              Z

   1  O       8.00    0.000000000    0.000000000   -0.130001744
   2  H       1.00    0.000000000    1.408149982    1.031782600
   3  H       1.00    0.000000000   -1.408149982    1.031782600

 Bond lengths in Bohr (Angstrom)

 1-2  1.825549023  1-3  1.825549023
     ( 0.966038940)     ( 0.966038940)

 Bond angles

  2-1-3  100.95180276

 NUCLEAR CHARGE:                   10
 NUMBER OF PRIMITIVE AOS:          41
 NUMBER OF SYMMETRY AOS:           40
 NUMBER OF CONTRACTIONS:           24   (  11A1  +   4B1  +   7B2  +   2A2  )
 NUMBER OF CORE ORBITALS:           1   (   1A1  +   0B1  +   0B2  +   0A2  )
 NUMBER OF VALENCE ORBITALS:        6   (   3A1  +   1B1  +   2B2  +   0A2  )


 NUCLEAR REPULSION ENERGY    9.11956244

 Eigenvalues of metric

         1 0.175E-01 0.517E-01 0.160E+00 0.224E+00 0.529E+00 0.986E+00 0.101E+01 0.129E+01
         2 0.183E+00 0.527E+00 0.111E+01 0.224E+01
         3 0.463E-01 0.986E-01 0.172E+00 0.665E+00 0.100E+01 0.116E+01 0.253E+01
         4 0.630E+00 0.131E+01


 Contracted 2-electron integrals neglected if value below      1.0D-14
 AO integral compression algorithm  1   Integral accuracy      1.0D-14

     0.262 MB (compressed) written to integral file (100.0%)


 NUMBER OF SORTED TWO-ELECTRON INTEGRALS:      13826.     BUFFER LENGTH:  32768
 NUMBER OF SEGMENTS:   1  SEGMENT LENGTH:      13826      RECORD LENGTH: 524288

 Memory used in sort:       0.57 MW

 SORT1 READ       19290. AND WROTE       12665. INTEGRALS IN      1 RECORDS. CPU TIME:     0.00 SEC, REAL TIME:     0.01 SEC
 SORT2 READ       12665. AND WROTE       13826. INTEGRALS IN      1 RECORDS. CPU TIME:     0.00 SEC, REAL TIME:     0.00 SEC

 FILE SIZES:   FILE 1:    19.4 MBYTE,  FILE 4:     4.2 MBYTE,   TOTAL:     23.6 MBYTE

 OPERATOR DM      FOR CENTER  0  COORDINATES:    0.000000    0.000000    0.000000

 PROGRAM * RHF-SCF (CLOSED SHELL)       Authors: W. Meyer, H.-J. Werner


 NUMBER OF ELECTRONS:       5+    5-
 CONVERGENCE THRESHOLDS:    1.00E-10 (Density)    1.00E-11 (Energy)
 MAX. NUMBER OF ITERATIONS:       60
 INTERPOLATION TYPE:            DIIS
 INTERPOLATION STEPS:              2 (START)      1 (STEP)
 LEVEL SHIFTS:                  0.00 (CLOSED)  0.00 (OPEN) 

 Number of closed-shell orbitals:    5 (   3   1   1   0 )


 Molecular orbitals read from record     2100.2  Type=RHF/CANONICAL (state 1.1)

 Molecular orbital dump at record        2100.1

 ITERATION    DDIFF          GRAD             ENERGY        2-EL.EN.            DIPOLE MOMENTS         DIIS   ORB.
    1      0.000D+00      0.000D+00       -76.02598099     75.723899    0.00000    0.00000    0.83313    0    start
    2      0.000D+00      0.662D-03       -76.02599733     75.718573    0.00000    0.00000    0.83368    1    diag
    3      0.189D-02      0.137D-03       -76.02599820     75.721190    0.00000    0.00000    0.83360    2    diag
    4      0.487D-03      0.254D-04       -76.02599822     75.719063    0.00000    0.00000    0.83335    3    diag
    5      0.466D-04      0.117D-04       -76.02599823     75.719590    0.00000    0.00000    0.83331    4    diag
    6      0.226D-04      0.196D-05       -76.02599823     75.719575    0.00000    0.00000    0.83328    5    diag
    7      0.606D-05      0.295D-06       -76.02599823     75.719576    0.00000    0.00000    0.83328    6    diag
    8      0.823D-06      0.706D-07       -76.02599823     75.719576    0.00000    0.00000    0.83328    7    orth
    9      0.190D-06      0.135D-07       -76.02599823     75.719576    0.00000    0.00000    0.83328    8    diag
   10      0.393D-07      0.152D-08       -76.02599823     75.719576    0.00000    0.00000    0.83328    9    diag
   11      0.399D-08      0.215D-09       -76.02599823     75.719576    0.00000    0.00000    0.83328    9    diag
   12      0.585D-09      0.214D-10       -76.02599823     75.719576    0.00000    0.00000    0.83328    9    diag
   13      0.526D-10      0.196D-11       -76.02599823     75.719576    0.00000    0.00000    0.83328    0    orth

 Final occupancy:   3   1   1   0

 !RHF STATE 1.1 Energy                -76.025998230284
 Nuclear energy                         9.11956244
 One-electron energy                 -123.00534860
 Two-electron energy                   37.85978793
 Virial quotient                       -1.00085993
 !RHF STATE 1.1 Dipole moment           0.00000000     0.00000000     0.83327714
 Dipole moment /Debye                   0.00000000     0.00000000     2.11784051

 Orbital energies:

         1.1          2.1          3.1          4.1          5.1
    -20.553905    -1.335112    -0.572256     0.183318     0.861671

         1.2          2.2          3.2
     -0.493822     1.199295     1.652897

         1.3          2.3          3.3
     -0.687791     0.255322     0.771501

         1.4          2.4
      1.486083     3.316973

 HOMO      1.2    -0.493822 =     -13.4376eV
 LUMO      4.1     0.183318 =       4.9883eV
 LUMO-HOMO         0.677141 =      18.4259eV


 **********************************************************************************************************************************
 DATASETS  * FILE   NREC   LENGTH (MB)   RECORD NAMES
              1      20       21.68       500      610      700      900      950      970     1000      129      960     1100   
                                          VAR    BASINP    GEOM    SYMINP    ZMAT    AOBASIS   BASIS     P2S    ABASIS      S 
                                         1400     1410     1200     1210     1080     1600     1650     1300     1700     2100   
                                           T        V       H0       H01     AOSYM     SMH    MOLCAS    ERIS     OPER      RHF  

              2       5        2.77       700     1000      520     2100     5600   
                                         GEOM     BASIS   MCVARS     RHF     GINFO   

 PROGRAMS   *        TOTAL       RHF   CCSD(T)       RHF       INT
 CPU TIMES  *         3.49      0.50      0.06      0.02      0.12
 REAL TIME  *         5.59 SEC
 DISK USED  *        26.39 MB      
 **********************************************************************************************************************************


 PROGRAM * CCSD (Closed-shell coupled cluster)     Authors: C. Hampel, H.-J. Werner, 1991, M. Deegan, P.J. Knowles, 1992


 Convergence thresholds:  THRVAR = 1.00D-14  THRDEN = 1.00D-10

 CCSD(T)     terms to be evaluated (factor= 1.000)


[...]

  Triples (T) contribution             -0.003111581202
  Total correlation energy             -0.215330719525

  CCSD total energy                   -76.238175050676
  CCSD[T] energy                      -76.241375839337
  CCSD-T energy                       -76.241229461430
 !CCSD(T) total energy                -76.241286631878

 Timing summary (sec):

 STEP                 CPU(USER)    SYS     CPU(TOT)    WALL
 CCSD iterations         0.04      0.00      0.04      0.04

 Program statistics:

 Available memory in ccsd:               999998686
 Min. memory needed in ccsd:                 17202
 Max. memory used in ccsd:                   18488
 Max. memory used in cckext:                 48698 (12 integral passes)



 **********************************************************************************************************************************
 DATASETS  * FILE   NREC   LENGTH (MB)   RECORD NAMES
              1      22       22.23       500      610      700      702      900      950      970     1001      129      960   
                                          VAR    BASINP    GEOM     GEOM    SYMINP    ZMAT    AOBASIS   BASIS     P2S    ABASIS    
                                         1100     1400     1410     1200     1210     1080     1600     1650     1300     1700   
                                           S        T        V       H0       H01     AOSYM     SMH    MOLCAS    ERIS     OPER   
                                         2100     1380   
                                          RHF     JKOP   

              2       9        3.22       700     1000      520     2100     5600      701     5500      702     1001   
                                         GEOM     BASIS   MCVARS     RHF     GINFO    GEOM     HTASK    GEOM     BASIS   

 PROGRAMS   *        TOTAL   CCSD(T)      OPTG   CCSD(T)       RHF       INT
 CPU TIMES  *         6.47      0.06      4.62      0.06      0.02      0.12
 REAL TIME  *         9.01 SEC
 DISK USED  *        27.33 MB      
 **********************************************************************************************************************************

 Tasks on processor    1 finished.  CPU=      1.28 sec, Elapsed=      1.35 sec. Waiting for other processors...
 Tasks on processor    1 finished.  CPU=      1.58 sec, Elapsed=      1.64 sec. All tasks on all processors finished.

 CCSD(T) hessian saved to record  5300.2

 PROGRAM * FREQUENCIES (Calculation of harmonuc vibrational spectra for CCSD(T))


 Permanent Dipole Moment [debye]
   1-  3    0.000000    0.000000    0.000000

 Dipole Moment Norm    0.0000000 [debye]

 Dipole Moment Derivatives [debye/ang]
                   1             2             3             4             5             6             7             8
         1     0.0000000     0.0000000     0.0000000     0.0000000     0.0000000     0.0000000     0.0000000     0.0000000
         2     0.0000000     0.0000000     0.0000000     0.0000000     0.0000000     0.0000000     0.0000000     0.0000000
         3     0.0000000     0.0000000     0.0000000     0.0000000     0.0000000     0.0000000     0.0000000     0.0000000
                   9
         1     0.0000000
         2     0.0000000
         3     0.0000000

 Projecting out rotations and translations

   Low Vibration      Wavenumber
        Nr             [1/cm] 
        1                0.00
        2                0.00
        3                0.00
        4                0.00
        5                0.00
        6                0.00

     Vibration        Wavenumber
        Nr             [1/cm] 
        1             1689.45
        2             3821.20
        3             3927.18

 FREQUENCIES * CALCULATION OF NORMAL MODES FOR CCSD(T)


 Atomic Coordinates

  Nr  Atom  Charge       X              Y              Z

   1   O     8.00    0.000000000    0.000000000   -0.128707778
   2   H     1.00    0.000000000    1.418274496    1.021512804
   3   H     1.00    0.000000000   -1.418274496    1.021512804

 Frequencies dumped to record   5400.2

 Gradient norm at reference geometry: 0.41357D-04

 Normal Modes

                              1 A1        2 A1        3 B2 
 Wavenumbers [cm-1]         1689.45     3821.20     3927.18
 Intensities [km/mol]          0.00        0.00        0.00
 Intensities [relative]        0.00        0.00        0.00
           OX1              0.00000     0.00000     0.00000
           OY1             -0.00000     0.00000    -0.06645
           OZ1             -0.06719    -0.04980     0.00000
           HX2              0.00000    -0.00000    -0.00000
           HY2             -0.41940     0.56583     0.52736
           HZ2              0.53324     0.39523     0.42769
           HX3             -0.00000     0.00000     0.00000
           HY3              0.41940    -0.56583     0.52736
           HZ3              0.53324     0.39523    -0.42769


 Normal Modes of low/zero frequencies

                                  1           2           3           4           5
 Wavenumbers [cm-1]            0.00        0.00        0.00        0.00        0.00
 Intensities [km/mol]          0.00        0.00        0.00        0.00        0.00
 Intensities [relative]        0.00        0.00        0.00        0.00        0.00
           OX1              0.00000     0.00000     0.00000     0.16762     0.18548
           OY1              0.14536     0.18520    -0.03888     0.00000     0.00000
           OZ1              0.04021     0.01003     0.22917     0.00000     0.00000
           HX2             -0.53055     0.44859     0.08555    -0.52255     0.47223
           HY2             -0.00066     0.09153    -0.07423     0.00000     0.00000
           HZ2              0.22026     0.12553     0.27275     0.00000     0.00000
           HX3              0.53055    -0.44859    -0.08555    -0.52255     0.47223
           HY3             -0.00066     0.09153    -0.07423     0.00000     0.00000
           HZ3             -0.13984    -0.10547     0.18559     0.00000     0.00000

                                  6
 Wavenumbers [cm-1]            0.00
 Intensities [km/mol]          0.00
 Intensities [relative]        0.00
           OX1              0.00000
           OY1              0.03387
           OZ1              0.03568
           HX2             -0.07760
           HY2              0.45174
           HZ2             -0.47957
           HX3              0.07760
           HY3              0.45174
           HZ3              0.55094


 Zero point energy:  0.02150096 [H]     4718.92 [1/CM]       56.45 [KJ/MOL]

 Recomputing wavefunction at initial geometry


 Recomputing integrals since geometry and symmetry changed


 Using spherical harmonics

 Library entry O      S cc-pVDZ              selected for orbital group  1
 Library entry O      P cc-pVDZ              selected for orbital group  1
 Library entry O      D cc-pVDZ              selected for orbital group  1
 Library entry H      S cc-pVDZ              selected for orbital group  2
 Library entry H      P cc-pVDZ              selected for orbital group  2


 PROGRAM * SEWARD (Integral evaluation for generally contracted gaussian basis sets)     Author: Roland Lindh, 1990

 Geometry written to block  1 of record 700

 Orientation using atomic masses  
 Molecule type: Asymmetric top,     Order of principal axis = 2
 Symmetry elements: X,Y
 Rotational constants:     280.9575716    761.9479377    445.0713721 GHz  (calculated with average atomic masses)

 Point group  C2v 



 ATOMIC COORDINATES

 NR  ATOM    CHARGE       X              Y              Z

   1  O       8.00    0.000000000    0.000000000   -0.128707778
   2  H       1.00    0.000000000    1.418274496    1.021512804
   3  H       1.00    0.000000000   -1.418274496    1.021512804

 Bond lengths in Bohr (Angstrom)

 1-2  1.826064055  1-3  1.826064055
     ( 0.966311484)     ( 0.966311484)

 Bond angles

  2-1-3  101.91589677

 NUCLEAR CHARGE:                   10
 NUMBER OF PRIMITIVE AOS:          41
 NUMBER OF SYMMETRY AOS:           40
 NUMBER OF CONTRACTIONS:           24   (  11A1  +   4B1  +   7B2  +   2A2  )
 NUMBER OF CORE ORBITALS:           1   (   1A1  +   0B1  +   0B2  +   0A2  )
 NUMBER OF VALENCE ORBITALS:        6   (   3A1  +   1B1  +   2B2  +   0A2  )

 SYMMETRY CHANGED: INITIALIZING OCCUPATION


 NUCLEAR REPULSION ENERGY    9.11455571

 Eigenvalues of metric

         1 0.176E-01 0.518E-01 0.160E+00 0.224E+00 0.526E+00 0.986E+00 0.101E+01 0.129E+01
         2 0.183E+00 0.528E+00 0.111E+01 0.224E+01
         3 0.462E-01 0.988E-01 0.172E+00 0.668E+00 0.101E+01 0.116E+01 0.254E+01
         4 0.629E+00 0.132E+01


 Contracted 2-electron integrals neglected if value below      1.0D-14
 AO integral compression algorithm  1   Integral accuracy      1.0D-14

     0.262 MB (compressed) written to integral file (100.0%)


 NUMBER OF SORTED TWO-ELECTRON INTEGRALS:      13826.     BUFFER LENGTH:  32768
 NUMBER OF SEGMENTS:   1  SEGMENT LENGTH:      13826      RECORD LENGTH: 524288

 Memory used in sort:       0.57 MW

 SORT1 READ       19290. AND WROTE       12665. INTEGRALS IN      1 RECORDS. CPU TIME:     0.00 SEC, REAL TIME:     0.00 SEC
 SORT2 READ       12665. AND WROTE       13826. INTEGRALS IN      1 RECORDS. CPU TIME:     0.01 SEC, REAL TIME:     0.00 SEC

 FILE SIZES:   FILE 1:    19.4 MBYTE,  FILE 4:     4.2 MBYTE,   TOTAL:     23.6 MBYTE

 OPERATOR DM      FOR CENTER  0  COORDINATES:    0.000000    0.000000    0.000000

 PROGRAM * RHF-SCF (CLOSED SHELL)       Authors: W. Meyer, H.-J. Werner


 NUMBER OF ELECTRONS:       5+    5-
 CONVERGENCE THRESHOLDS:    1.00E-10 (Density)    1.00E-11 (Energy)
 MAX. NUMBER OF ITERATIONS:       60
 INTERPOLATION TYPE:            DIIS
 INTERPOLATION STEPS:              2 (START)      1 (STEP)
 LEVEL SHIFTS:                  0.00 (CLOSED)  0.00 (OPEN) 



 Molecular orbitals read from record     2100.2  Type=RHF/CANONICAL (state 1.1)

 Molecular orbital dump at record        2100.2

 ITERATION    DDIFF          GRAD             ENERGY        2-EL.EN.            DIPOLE MOMENTS         DIIS   ORB.
    1      0.000D+00      0.000D+00       -76.02611143     75.717933    0.00000    0.00000    0.82779    0    start
    2      0.000D+00      0.201D-12       -76.02611143     75.717933    0.00000    0.00000    0.82779    0    orth

 Final occupancy:   3   1   1   0

 !RHF STATE 1.1 Energy                -76.026111428652
 Nuclear energy                         9.11455571
 One-electron energy                 -122.99963340
 Two-electron energy                   37.85896626
 Virial quotient                       -1.00089422
 !RHF STATE 1.1 Dipole moment           0.00000000     0.00000000     0.82779210
 Dipole moment /Debye                   0.00000000     0.00000000     2.10389986

 Orbital energies:

         1.1          2.1          3.1          4.1          5.1
    -20.553442    -1.334199    -0.570220     0.183495     0.857305

         1.2          2.2          3.2
     -0.493458     1.199541     1.658435

         1.3          2.3          3.3
     -0.689531     0.255177     0.774332

         1.4          2.4
      1.482629     3.320296

 HOMO      1.2    -0.493458 =     -13.4277eV
 LUMO      4.1     0.183495 =       4.9932eV
 LUMO-HOMO         0.676953 =      18.4208eV


 **********************************************************************************************************************************
 DATASETS  * FILE   NREC   LENGTH (MB)   RECORD NAMES
              1      19       19.20       500      610      700      900      950      970     1000      129      960     1100   
                                          VAR    BASINP    GEOM    SYMINP    ZMAT    AOBASIS   BASIS     P2S    ABASIS      S 
                                         1400     1410     1200     1210     1080     1600     1650     1300     1700   
                                           T        V       H0       H01     AOSYM     SMH    MOLCAS    ERIS     OPER   

              2       8        2.77       700     1000      520     2100     5600     5300     5400     5450   
                                         GEOM     BASIS   MCVARS     RHF     GINFO    HESS     FREQ     NMOD   

 PROGRAMS   *        TOTAL       RHF      OPTG   CCSD(T)       RHF       INT
 CPU TIMES  *         7.24      0.47      4.62      0.06      0.02      0.12
 REAL TIME  *         9.84 SEC
 DISK USED  *        27.33 MB      
 **********************************************************************************************************************************


 PROGRAM * CCSD (Closed-shell coupled cluster)     Authors: C. Hampel, H.-J. Werner, 1991, M. Deegan, P.J. Knowles, 1992


 Convergence thresholds:  THRVAR = 1.00D-14  THRDEN = 1.00D-10

 CCSD(T)     terms to be evaluated (factor= 1.000)


 Number of core orbitals:           1 (   1   0   0   0 )
 Number of closed-shell orbitals:   4 (   2   1   1   0 )
 Number of external orbitals:      19 (   8   3   6   2 )

 Molecular orbitals read from record     2100.2  Type=RHF/CANONICAL (state 1.1)

 Number of N-1 electron functions:               4
 Number of N-2 electron functions:              10
 Number of singly external CSFs:                25
 Number of doubly external CSFs:               805
 Total number of CSFs:                         831

 Length of J-op  integral file:               0.00 MB
 Length of K-op  integral file:               0.04 MB
 Length of 3-ext integral record:             0.00 MB

 Memory could be reduced to 0.30 Mwords without degradation in triples

 Integral transformation finished. Total CPU:   0.00 sec, npass=  1  Memory used:   0.07 MW

 Reference energy:                    -76.02611143

 MP2 singlet pair energy:              -0.12620470
 MP2 triplet pair energy:              -0.07634641
 MP2 correlation energy:               -0.20255111
 MP2 total energy:                    -76.22866254

 SCS-MP2 correlation energy:           -0.19895007   (PS=  1.200000  PT=  0.333333)
 SCS-MP2 total energy:                -76.22506150

 ITER.      SQ.NORM     CORR.ENERGY   TOTAL ENERGY   ENERGY CHANGE        DEN1      VAR(S)    VAR(P)  DIIS     TIME  TIME/IT
   1      1.05339687    -0.21106314   -76.23717456    -0.00851203    -0.00487131  0.29D-03  0.69D-03  1  1     0.01     0.00
   2      1.05663696    -0.21201153   -76.23812296    -0.00094839    -0.00393867  0.54D-05  0.60D-04  2  2     0.01     0.00
   3      1.05745401    -0.21208834   -76.23819977    -0.00007681    -0.00061193  0.21D-05  0.24D-05  3  3     0.01     0.00
   4      1.05764042    -0.21209139   -76.23820282    -0.00000305    -0.00010077  0.13D-06  0.14D-06  4  4     0.01     0.00
   5      1.05767528    -0.21208989   -76.23820132     0.00000150    -0.00001600  0.34D-07  0.78D-08  5  5     0.01     0.00
   6      1.05768011    -0.21208982   -76.23820125     0.00000007     0.00000037  0.43D-08  0.84D-09  6  6     0.01     0.00
   7      1.05768284    -0.21208976   -76.23820119     0.00000006    -0.00000027  0.16D-09  0.70D-10  6  1     0.01     0.00
   8      1.05768322    -0.21208971   -76.23820114     0.00000005     0.00000007  0.43D-11  0.50D-11  6  2     0.01     0.00
   9      1.05768333    -0.21208970   -76.23820113     0.00000001    -0.00000006  0.10D-12  0.31D-12  6  3     0.02     0.00
  10      1.05768336    -0.21208970   -76.23820113     0.00000000    -0.00000002  0.21D-14  0.89D-14  6  4     0.02     0.00
  11      1.05768336    -0.21208970   -76.23820113     0.00000000    -0.00000000  0.18D-15  0.34D-15  6  6     0.02     0.00
  12      1.05768336    -0.21208970   -76.23820113     0.00000000    -0.00000000  0.28D-17  0.13D-16  6  5     0.02     0.00

 Norm of t1 vector:      0.02424568      S-energy:     0.00000000      T1 diagnostic:  0.00606142
                                                                       D1 diagnostic:  0.01141348

 Doubles amplitudes (print threshold =  0.500E-01):

         I         J         SYM. A    SYM. B    A         B      T(IJ, AB)

         3         3         2         2         1         1     -0.05142890

 Total CPU time for triples:      0.00 sec


 RESULTS
 =======

  Reference energy                    -76.026111428652
  CCSD singlet pair energy             -0.144045873818
  CCSD triplet pair energy             -0.068043826615
  CCSD correlation energy              -0.212089700428

  Triples (T) contribution             -0.003103896657
  Total correlation energy             -0.215193597084

  CCSD total energy                   -76.238201129079
  CCSD[T] energy                      -76.241393739470
  CCSD-T energy                       -76.241248120683
 !CCSD(T) total energy                -76.241305025736

 Timing summary (sec):

 STEP                 CPU(USER)    SYS     CPU(TOT)    WALL
 CCSD iterations         0.02      0.00      0.02      0.02

 Program statistics:

 Available memory in ccsd:               999999836
 Min. memory needed in ccsd:                  5661
 Max. memory used in ccsd:                    6126
 Max. memory used in cckext:                 38485 (12 integral passes)



 **********************************************************************************************************************************
 DATASETS  * FILE   NREC   LENGTH (MB)   RECORD NAMES
              1      20       19.26       500      610      700      900      950      970     1000      129      960     1100   
                                          VAR    BASINP    GEOM    SYMINP    ZMAT    AOBASIS   BASIS     P2S    ABASIS      S 
                                         1400     1410     1200     1210     1080     1600     1650     1300     1700     1380   
                                           T        V       H0       H01     AOSYM     SMH    MOLCAS    ERIS     OPER     JKOP   

              2       8        2.77       700     1000      520     2100     5600     5300     5400     5450   
                                         GEOM     BASIS   MCVARS     RHF     GINFO    HESS     FREQ     NMOD   

 PROGRAMS   *        TOTAL   CCSD(T)      OPTG   CCSD(T)       RHF       INT
 CPU TIMES  *         7.29      0.05      4.62      0.06      0.02      0.12
 REAL TIME  *         9.90 SEC
 DISK USED  *        27.33 MB      
 **********************************************************************************************************************************


 **********************************************************************************************************************************
 DATASETS  * FILE   NREC   LENGTH (MB)   RECORD NAMES
              1      20       19.26       500      610      700      900      950      970     1000      129      960     1100   
                                          VAR    BASINP    GEOM    SYMINP    ZMAT    AOBASIS   BASIS     P2S    ABASIS      S 
                                         1400     1410     1200     1210     1080     1600     1650     1300     1700     1380   
                                           T        V       H0       H01     AOSYM     SMH    MOLCAS    ERIS     OPER     JKOP   

              2       8        2.77       700     1000      520     2100     5600     5300     5400     5450   
                                         GEOM     BASIS   MCVARS     RHF     GINFO    HESS     FREQ     NMOD   

 PROGRAMS   *        TOTAL      FREQ      OPTG   CCSD(T)       RHF       INT
 CPU TIMES  *         7.29      1.97      4.62      0.06      0.02      0.12
 REAL TIME  *         9.90 SEC
 DISK USED  *        27.33 MB      
 **********************************************************************************************************************************

 CCSD(T)/cc-pVDZ energy=    -76.241305025736

   OPTG(CCSD(T))        CCSD(T)         RHF-SCF 
    -76.24130503    -76.24071023    -76.02473505
 **********************************************************************************************************************************
 Molpro calculation terminated
 Variable memory released
