
 Primary working directories    : /scratch/kmoore
 Secondary working directories  : /scratch/kmoore
 Wavefunction directory         : /scratch/kmoore/
 Main file repository           : /scratch/kmoore/

 SHA1      : f86d681fdec979508940bfbbc93fd7db66630888
 NAME      : 2015.1.24
 ARCHNAME  : linux/x86_64
 FC        : /blues/gpfs/home/software/spack-0.10.1/opt/spack/linux-centos7-x86_64/intel-17.0.4/intel-mpi-2017.3-dfphq6kavje2olnichisvjjndtridrok/compilers_and_libraries_2017.4.196/linux/mpi/intel64/bin/mpiifort
 BLASLIB   : -L/blues/gpfs/home/software/spack-0.10.1/opt/spack/linux-centos7-x86_64/intel-17.0.4/intel-mkl-2017.3.196-jyjmyutcol3veyt4bazftyqkxxzmfd7o/pkg/compilers_and_libraries_2017.4.196/linux/mkl/lib/intel64 -lmkl_intel_ilp64 -lmkl_intel_thread -lmkl_core
 id        : anlgov

 Nodes     nprocs
 bdw-0085     1
 Number of processes for MPI-2 version of Molpro:   nprocs(total)=    2   nprocs(compute)=    1   nprocs(helper)=    1

 Using customized tuning parameters: mindgm=7; mindgv=16; mindgc=1; mindgr=1; noblas=0; minvec=7
 default implementation of scratch files=df  

 memory,1000,m
 gthresh,energy=1.0d-10,orbital=1.0d-10
 
 angstrom
 Geometry = {
 O
 H 1 r1
 H 1 r1 2 a1
 }
 
 r1 =  0.98
 a1 = 104.5
 
 basis=cc-pVTZ
 
 {rhf}
 {ccsd(t)}
 {optg}
 {freq}
 

 Variables initialized (889), CPU time= 0.01 sec
 Commands  initialized (702), CPU time= 0.00 sec, 572 directives.
 Default parameters read. Elapsed time= 0.27 sec

 Checking input...
 Passed
1


                                         ***  PROGRAM SYSTEM MOLPRO  ***
                                       Copyright, TTI GmbH Stuttgart, 2015
                                    Version 2015.1 linked Sep 21 2017 09:51:13


 **********************************************************************************************************************************
 LABEL *                                                                                 
  64 bit serial version                                                                  DATE: 13-Dec-18          TIME: 10:28:25  
 **********************************************************************************************************************************

 SHA1:             f86d681fdec979508940bfbbc93fd7db66630888
 **********************************************************************************************************************************

 THRESHOLDS:

 ZERO    =  1.00D-12  ONEINT  =  1.00D-12  TWOINT  =  1.00D-11  PREFAC  =  1.00D-14  LOCALI  =  1.00D-09  EORDER  =  1.00D-04
 ENERGY  =  1.00D-10  ETEST   =  0.00D+00  EDENS   =  0.00D+00  THRDEDEF=  1.00D-06  GRADIENT=  1.00D-02  STEP    =  1.00D-03
 ORBITAL =  1.00D-10  CIVEC   =  1.00D-05  COEFF   =  1.00D-04  PRINTCI =  5.00D-02  PUNCHCI =  9.90D+01  OPTGRAD =  3.00D-04
 OPTENERG=  1.00D-06  OPTSTEP =  3.00D-04  THRGRAD =  1.00D-10  COMPRESS=  1.00D-11  VARMIN  =  1.00D-07  VARMAX  =  1.00D-03
 THRDOUB =  0.00D+00  THRDIV  =  1.00D-05  THRRED  =  1.00D-07  THRPSP  =  1.00D+00  THRDC   =  1.00D-10  THRCS   =  1.00D-10
 THRNRM  =  1.00D-08  THREQ   =  0.00D+00  THRDE   =  1.00D+00  THRREF  =  1.00D-05  SPARFAC =  1.00D+00  THRDLP  =  1.00D-07
 THRDIA  =  1.00D-10  THRDLS  =  1.00D-07  THRGPS  =  0.00D+00  THRKEX  =  0.00D+00  THRDIS  =  2.00D-01  THRVAR  =  1.00D-10
 THRLOC  =  1.00D-06  THRGAP  =  1.00D-06  THRLOCT = -1.00D+00  THRGAPT = -1.00D+00  THRORB  =  1.00D-06  THRMLTP =  0.00D+00
 THRCPQCI=  1.00D-10  KEXTA   =  0.00D+00  THRCOARS=  0.00D+00  SYMTOL  =  1.00D-06  GRADTOL =  1.00D-06  THROVL  =  1.00D-08
 THRORTH =  1.00D-08  GRID    =  1.00D-06  GRIDMAX =  1.00D-03  DTMAX   =  0.00D+00  THROCCDE=  1.00D-01  THROCCDE=  1.00D-01


 ZUNIT=ANG
 
 SETTING R1             =         0.98000000                                  
 SETTING A1             =       104.50000000                                  

 Variable memory set to 1000000000 words,  buffer space   230000 words

 SETTING BASIS          =    CC-PVTZ


 Recomputing integrals since basis changed


 Using spherical harmonics

 Library entry O      S cc-pVTZ              selected for orbital group  1
 Library entry O      P cc-pVTZ              selected for orbital group  1
 Library entry O      D cc-pVTZ              selected for orbital group  1
 Library entry O      F cc-pVTZ              selected for orbital group  1
 Library entry H      S cc-pVTZ              selected for orbital group  2
 Library entry H      P cc-pVTZ              selected for orbital group  2
 Library entry H      D cc-pVTZ              selected for orbital group  2


 PROGRAM * SEWARD (Integral evaluation for generally contracted gaussian basis sets)     Author: Roland Lindh, 1990

 Geometry written to block  1 of record 700

 Orientation using atomic masses  
 Molecule type: Asymmetric top,     Order of principal axis = 2
 Symmetry elements: X,Y
 Rotational constants:     272.4632506    784.1994164    417.5306268 GHz  (calculated with average atomic masses)

 Point group  C2v 



 ATOMIC COORDINATES

 NR  ATOM    CHARGE       X              Y              Z

   1  O       8.00    0.000000000    0.000000000   -0.126868611
   2  H       1.00    0.000000000    1.464303009    1.006915917
   3  H       1.00    0.000000000   -1.464303009    1.006915917

 Bond lengths in Bohr (Angstrom)

 1-2  1.851931602  1-3  1.851931602
     ( 0.980000000)     ( 0.980000000)

 Bond angles

  2-1-3  104.50000000

 NUCLEAR CHARGE:                   10
 NUMBER OF PRIMITIVE AOS:          81
 NUMBER OF SYMMETRY AOS:           74
 NUMBER OF CONTRACTIONS:           58   (  23A1  +  11B1  +  17B2  +   7A2  )
 NUMBER OF CORE ORBITALS:           1   (   1A1  +   0B1  +   0B2  +   0A2  )
 NUMBER OF VALENCE ORBITALS:        6   (   3A1  +   1B1  +   2B2  +   0A2  )


 NUCLEAR REPULSION ENERGY    8.98108732

 Eigenvalues of metric

         1 0.271E-02 0.624E-02 0.115E-01 0.435E-01 0.872E-01 0.117E+00 0.177E+00 0.274E+00
         2 0.416E-01 0.113E+00 0.260E+00 0.453E+00 0.533E+00 0.720E+00 0.110E+01 0.133E+01
         3 0.491E-02 0.855E-02 0.484E-01 0.724E-01 0.968E-01 0.181E+00 0.283E+00 0.338E+00
         4 0.124E+00 0.326E+00 0.553E+00 0.893E+00 0.121E+01 0.132E+01 0.228E+01


 Contracted 2-electron integrals neglected if value below      1.0D-14
 AO integral compression algorithm  1   Integral accuracy      1.0D-14

     4.456 MB (compressed) written to integral file (100.0%)


 NUMBER OF SORTED TWO-ELECTRON INTEGRALS:     396151.     BUFFER LENGTH:  32768
 NUMBER OF SEGMENTS:   1  SEGMENT LENGTH:     396151      RECORD LENGTH: 524288

 Memory used in sort:       0.95 MW

 SORT1 READ      562034. AND WROTE      366996. INTEGRALS IN      2 RECORDS. CPU TIME:     0.01 SEC, REAL TIME:     0.02 SEC
 SORT2 READ      366996. AND WROTE      396151. INTEGRALS IN     17 RECORDS. CPU TIME:     0.02 SEC, REAL TIME:     0.03 SEC

 FILE SIZES:   FILE 1:    23.6 MBYTE,  FILE 4:     8.4 MBYTE,   TOTAL:     32.0 MBYTE

 OPERATOR DM      FOR CENTER  0  COORDINATES:    0.000000    0.000000    0.000000


 **********************************************************************************************************************************
 DATASETS  * FILE   NREC   LENGTH (MB)   RECORD NAMES
              1      19       22.15       500      610      700      900      950      970     1000      129      960     1100   
                                          VAR    BASINP    GEOM    SYMINP    ZMAT    AOBASIS   BASIS     P2S    ABASIS      S 
                                         1400     1410     1200     1210     1080     1600     1650     1300     1700   
                                           T        V       H0       H01     AOSYM     SMH    MOLCAS    ERIS     OPER   

 PROGRAMS   *        TOTAL       INT
 CPU TIMES  *         0.34      0.24
 REAL TIME  *         1.41 SEC
 DISK USED  *        32.34 MB      
 **********************************************************************************************************************************


 PROGRAM * RHF-SCF (CLOSED SHELL)       Authors: W. Meyer, H.-J. Werner


 NUMBER OF ELECTRONS:       5+    5-
 CONVERGENCE THRESHOLDS:    1.00E-10 (Density)    1.00E-11 (Energy)
 MAX. NUMBER OF ITERATIONS:       60
 INTERPOLATION TYPE:            DIIS
 INTERPOLATION STEPS:              2 (START)      1 (STEP)
 LEVEL SHIFTS:                  0.00 (CLOSED)  0.00 (OPEN) 



 Orbital guess generated from atomic densities. Full valence occupancy:    4   1   2   0

 Molecular orbital dump at record        2100.2

 Initial occupancy:   3   1   1   0

 ITERATION    DDIFF          GRAD             ENERGY        2-EL.EN.            DIPOLE MOMENTS         DIIS   ORB.
    1      0.000D+00      0.000D+00       -76.01595412     77.471167    0.00000    0.00000    1.17148    0    start
    2      0.000D+00      0.235D-01       -76.04391023     73.974206    0.00000    0.00000    0.71030    1    diag
    3      0.327D-01      0.143D-01       -76.05443145     75.475419    0.00000    0.00000    0.81482    2    diag
    4      0.110D-01      0.136D-02       -76.05463436     75.394655    0.00000    0.00000    0.80817    3    diag
    5      0.163D-02      0.397D-03       -76.05465733     75.406794    0.00000    0.00000    0.80492    4    diag
    6      0.589D-03      0.766D-04       -76.05465857     75.405189    0.00000    0.00000    0.80408    5    diag
    7      0.138D-03      0.132D-04       -76.05465860     75.405316    0.00000    0.00000    0.80391    6    diag
    8      0.278D-04      0.191D-05       -76.05465861     75.405281    0.00000    0.00000    0.80388    7    diag
    9      0.384D-05      0.195D-06       -76.05465861     75.405277    0.00000    0.00000    0.80388    8    diag
   10      0.423D-06      0.474D-07       -76.05465861     75.405279    0.00000    0.00000    0.80388    9    orth
   11      0.104D-06      0.848D-08       -76.05465861     75.405278    0.00000    0.00000    0.80388    9    diag
   12      0.188D-07      0.135D-08       -76.05465861     75.405278    0.00000    0.00000    0.80388    9    diag
   13      0.362D-08      0.366D-09       -76.05465861     75.405278    0.00000    0.00000    0.80388    9    diag
   14      0.966D-09      0.454D-10       -76.05465861     75.405278    0.00000    0.00000    0.80388    9    diag
   15      0.758D-10      0.617D-11       -76.05465861     75.405278    0.00000    0.00000    0.80388    0    orth

 Final occupancy:   3   1   1   0

 !RHF STATE 1.1 Energy                -76.054658605321
 Nuclear energy                         8.98108732
 One-electron energy                 -122.73838508
 Two-electron energy                   37.70263916
 Virial quotient                       -1.00178386
 !RHF STATE 1.1 Dipole moment           0.00000000     0.00000000     0.80387836
 Dipole moment /Debye                   0.00000000     0.00000000     2.04312116

 Orbital energies:

         1.1          2.1          3.1          4.1          5.1
    -20.558729    -1.334219    -0.573423     0.139805     0.588722

         1.2          2.2          3.2
     -0.502698     0.786947     0.952931

         1.3          2.3          3.3
     -0.697484     0.201894     0.534762

         1.4          2.4
      0.856366     2.056936

 HOMO      1.2    -0.502698 =     -13.6791eV
 LUMO      4.1     0.139805 =       3.8043eV
 LUMO-HOMO         0.642503 =      17.4834eV


 **********************************************************************************************************************************
 DATASETS  * FILE   NREC   LENGTH (MB)   RECORD NAMES
              1      19       22.15       500      610      700      900      950      970     1000      129      960     1100   
                                          VAR    BASINP    GEOM    SYMINP    ZMAT    AOBASIS   BASIS     P2S    ABASIS      S 
                                         1400     1410     1200     1210     1080     1600     1650     1300     1700   
                                           T        V       H0       H01     AOSYM     SMH    MOLCAS    ERIS     OPER   

              2       4        2.79       700     1000      520     2100   
                                         GEOM     BASIS   MCVARS     RHF  

 PROGRAMS   *        TOTAL       RHF       INT
 CPU TIMES  *         0.39      0.05      0.24
 REAL TIME  *         1.49 SEC
 DISK USED  *        32.34 MB      
 **********************************************************************************************************************************


 PROGRAM * CCSD (Closed-shell coupled cluster)     Authors: C. Hampel, H.-J. Werner, 1991, M. Deegan, P.J. Knowles, 1992


 Convergence thresholds:  THRVAR = 1.00D-14  THRDEN = 1.00D-10

 CCSD(T)     terms to be evaluated (factor= 1.000)


 Number of core orbitals:           1 (   1   0   0   0 )
 Number of closed-shell orbitals:   4 (   2   1   1   0 )
 Number of external orbitals:      53 (  20  10  16   7 )

 Molecular orbitals read from record     2100.2  Type=RHF/CANONICAL (state 1.1)

 Number of N-1 electron functions:               4
 Number of N-2 electron functions:              10
 Number of singly external CSFs:                66
 Number of doubly external CSFs:              5929
 Total number of CSFs:                        5996

 Length of J-op  integral file:               0.00 MB
 Length of K-op  integral file:               0.10 MB
 Length of 3-ext integral record:             0.00 MB

 Memory could be reduced to 0.56 Mwords without degradation in triples

 Integral transformation finished. Total CPU:   0.00 sec, npass=  1  Memory used:   0.12 MW

 Reference energy:                    -76.05465861

 MP2 singlet pair energy:              -0.16734497
 MP2 triplet pair energy:              -0.09577764
 MP2 correlation energy:               -0.26312260
 MP2 total energy:                    -76.31778121

 SCS-MP2 correlation energy:           -0.26040893   (PS=  1.200000  PT=  0.333333)
 SCS-MP2 total energy:                -76.31506754

 ITER.      SQ.NORM     CORR.ENERGY   TOTAL ENERGY   ENERGY CHANGE        DEN1      VAR(S)    VAR(P)  DIIS     TIME  TIME/IT
   1      1.06184339    -0.26836267   -76.32302127    -0.00524007    -0.00003837  0.48D-03  0.87D-03  1  1     0.02     0.01
   2      1.06517825    -0.26880549   -76.32346410    -0.00044282    -0.00464236  0.85D-05  0.96D-04  2  2     0.03     0.01
   3      1.06632614    -0.26887760   -76.32353621    -0.00007211    -0.00088280  0.18D-05  0.45D-05  3  3     0.04     0.01
   4      1.06663123    -0.26888954   -76.32354815    -0.00001194    -0.00017766  0.14D-06  0.24D-06  4  4     0.04     0.01
   5      1.06667446    -0.26888678   -76.32354538     0.00000277    -0.00002103  0.48D-07  0.14D-07  5  5     0.05     0.01
   6      1.06668227    -0.26888664   -76.32354525     0.00000014    -0.00000203  0.71D-08  0.16D-08  6  6     0.06     0.01
   7      1.06668445    -0.26888679   -76.32354539    -0.00000014    -0.00000037  0.10D-08  0.22D-09  6  1     0.07     0.01
   8      1.06668522    -0.26888680   -76.32354541    -0.00000001     0.00000050  0.37D-10  0.17D-10  6  2     0.08     0.01
   9      1.06668547    -0.26888678   -76.32354539     0.00000002    -0.00000009  0.17D-11  0.16D-11  6  3     0.09     0.01
  10      1.06668552    -0.26888677   -76.32354538     0.00000001     0.00000003  0.55D-13  0.86D-13  6  4     0.09     0.01
  11      1.06668553    -0.26888677   -76.32354538     0.00000000    -0.00000001  0.23D-14  0.64D-14  6  5     0.10     0.01
  12      1.06668552    -0.26888677   -76.32354538    -0.00000000     0.00000000  0.20D-15  0.46D-15  6  6     0.11     0.01
  13      1.06668552    -0.26888677   -76.32354538    -0.00000000     0.00000000  0.44D-16  0.38D-16  6  1     0.12     0.01
  14      1.06668552    -0.26888677   -76.32354538    -0.00000000     0.00000000  0.84D-17  0.40D-17  6  2     0.13     0.01

 Norm of t1 vector:      0.02728403      S-energy:     0.00000000      T1 diagnostic:  0.00682101
                                                                       D1 diagnostic:  0.01134756


 Total CPU time for triples:      0.02 sec


 RESULTS
 =======

  Reference energy                    -76.054658605321
  CCSD singlet pair energy             -0.183831778412
  CCSD triplet pair energy             -0.085054996314
  CCSD correlation energy              -0.268886774689

  Triples (T) contribution             -0.007834004648
  Total correlation energy             -0.276720779337

  CCSD total energy                   -76.323545380010
  CCSD[T] energy                      -76.331583091053
  CCSD-T energy                       -76.331235403864
 !CCSD(T) total energy                -76.331379384658

 Timing summary (sec):

 STEP                 CPU(USER)    SYS     CPU(TOT)    WALL
 CCSD iterations         0.13      0.04      0.17      0.18
 Triples                 0.02      0.00      0.02      0.02

 Program statistics:

 Available memory in ccsd:               999999836
 Min. memory needed in ccsd:                 31875
 Max. memory used in ccsd:                   36141
 Max. memory used in cckext:                 65678 (14 integral passes)



 **********************************************************************************************************************************
 DATASETS  * FILE   NREC   LENGTH (MB)   RECORD NAMES
              1      20       22.92       500      610      700      900      950      970     1000      129      960     1100   
                                          VAR    BASINP    GEOM    SYMINP    ZMAT    AOBASIS   BASIS     P2S    ABASIS      S 
                                         1400     1410     1200     1210     1080     1600     1650     1300     1700     1380   
                                           T        V       H0       H01     AOSYM     SMH    MOLCAS    ERIS     OPER     JKOP   

              2       4        2.79       700     1000      520     2100   
                                         GEOM     BASIS   MCVARS     RHF  

 PROGRAMS   *        TOTAL   CCSD(T)       RHF       INT
 CPU TIMES  *         0.56      0.16      0.05      0.24
 REAL TIME  *         1.72 SEC
 DISK USED  *        32.34 MB      
 **********************************************************************************************************************************


 PROGRAM * OPT (Geometry optimization)     Authors: F. Eckert and H.-J. Werner


 BFGS update of hessian

 Running default procedure: RHF-SCF000  CCSD(T)

 Geometry optimization using default procedure for command CCSD(T)

 Geometry written to block  1 of record 700
 

 Number of displacements for numerical gradient:      4

 Starting numerical gradient for CCSD(T)
 Starting task   1 Incrementing variable R1       by   0.00529 ANG to    0.98529 ANG. CPU=    0.00 sec, Elapsed=    0.00 sec


 Recomputing integrals since geometry changed


 PROGRAM * SEWARD (Integral evaluation for generally contracted gaussian basis sets)     Author: Roland Lindh, 1990

 Geometry written to block  1 of record 700

 Orientation using atomic masses  
 Molecule type: Asymmetric top,     Order of principal axis = 2
 Symmetry elements: X,Y
 Rotational constants:     269.5444368    775.7985327    413.0577515 GHz  (calculated with average atomic masses)

 Point group  C2v 



 ATOMIC COORDINATES

 NR  ATOM    CHARGE       X              Y              Z

   1  O       8.00    0.000000000    0.000000000   -0.127553672
   2  H       1.00    0.000000000    1.472209905    1.012353029
   3  H       1.00    0.000000000   -1.472209905    1.012353029

 Bond lengths in Bohr (Angstrom)

 1-2  1.861931602  1-3  1.861931602
     ( 0.985291772)     ( 0.985291772)

 Bond angles

  2-1-3  104.50000000

 NUCLEAR CHARGE:                   10
 NUMBER OF PRIMITIVE AOS:          81
 NUMBER OF SYMMETRY AOS:           74
 NUMBER OF CONTRACTIONS:           58   (  23A1  +  11B1  +  17B2  +   7A2  )
 NUMBER OF CORE ORBITALS:           1   (   1A1  +   0B1  +   0B2  +   0A2  )
 NUMBER OF VALENCE ORBITALS:        6   (   3A1  +   1B1  +   2B2  +   0A2  )


 NUCLEAR REPULSION ENERGY    8.93285199

 Eigenvalues of metric

         1 0.274E-02 0.635E-02 0.117E-01 0.439E-01 0.880E-01 0.118E+00 0.180E+00 0.275E+00
         2 0.419E-01 0.114E+00 0.263E+00 0.455E+00 0.535E+00 0.724E+00 0.110E+01 0.132E+01
         3 0.496E-02 0.880E-02 0.485E-01 0.732E-01 0.979E-01 0.184E+00 0.284E+00 0.343E+00
         4 0.127E+00 0.329E+00 0.556E+00 0.897E+00 0.121E+01 0.132E+01 0.228E+01


 Contracted 2-electron integrals neglected if value below      1.0D-14
 AO integral compression algorithm  1   Integral accuracy      1.0D-14

     4.456 MB (compressed) written to integral file (100.0%)


 NUMBER OF SORTED TWO-ELECTRON INTEGRALS:     396151.     BUFFER LENGTH:  32768
 NUMBER OF SEGMENTS:   1  SEGMENT LENGTH:     396151      RECORD LENGTH: 524288

 Memory used in sort:       0.95 MW

 SORT1 READ      562034. AND WROTE      366996. INTEGRALS IN      2 RECORDS. CPU TIME:     0.01 SEC, REAL TIME:     0.01 SEC
 SORT2 READ      366996. AND WROTE      396151. INTEGRALS IN     17 RECORDS. CPU TIME:     0.02 SEC, REAL TIME:     0.03 SEC

 FILE SIZES:   FILE 1:    23.6 MBYTE,  FILE 4:     8.4 MBYTE,   TOTAL:     32.0 MBYTE

 OPERATOR DM      FOR CENTER  0  COORDINATES:    0.000000    0.000000    0.000000

 PROGRAM * RHF-SCF (CLOSED SHELL)       Authors: W. Meyer, H.-J. Werner


 NUMBER OF ELECTRONS:       5+    5-
 CONVERGENCE THRESHOLDS:    1.00E-10 (Density)    1.00E-11 (Energy)
 MAX. NUMBER OF ITERATIONS:       60
 INTERPOLATION TYPE:            DIIS
 INTERPOLATION STEPS:              2 (START)      1 (STEP)
 LEVEL SHIFTS:                  0.00 (CLOSED)  0.00 (OPEN) 

 Number of closed-shell orbitals:    5 (   3   1   1   0 )


 Molecular orbitals read from record     2100.2  Type=RHF/CANONICAL (state 1.1)

 Molecular orbital dump at record        2100.1

 ITERATION    DDIFF          GRAD             ENERGY        2-EL.EN.            DIPOLE MOMENTS         DIIS   ORB.
    1      0.000D+00      0.000D+00       -76.05379701     75.357973    0.00000    0.00000    0.80754    0    start
    2      0.000D+00      0.491D-03       -76.05381132     75.317854    0.00000    0.00000    0.80636    1    diag
    3      0.107D-02      0.159D-03       -76.05381268     75.337213    0.00000    0.00000    0.80660    2    diag
    4      0.207D-03      0.651D-04       -76.05381301     75.330004    0.00000    0.00000    0.80574    3    diag
    5      0.665D-04      0.130D-04       -76.05381304     75.330548    0.00000    0.00000    0.80559    4    diag
    6      0.198D-04      0.349D-05       -76.05381304     75.330501    0.00000    0.00000    0.80549    5    diag
    7      0.738D-05      0.670D-06       -76.05381304     75.330500    0.00000    0.00000    0.80549    6    diag
    8      0.149D-05      0.894D-07       -76.05381304     75.330501    0.00000    0.00000    0.80549    7    orth
    9      0.184D-06      0.143D-07       -76.05381304     75.330501    0.00000    0.00000    0.80549    8    diag
   10      0.316D-07      0.210D-08       -76.05381304     75.330501    0.00000    0.00000    0.80549    9    diag
   11      0.406D-08      0.284D-09       -76.05381304     75.330501    0.00000    0.00000    0.80549    9    diag
   12      0.665D-09      0.506D-10       -76.05381304     75.330501    0.00000    0.00000    0.80549    9    diag
   13      0.109D-09      0.541D-11       -76.05381304     75.330501    0.00000    0.00000    0.80549    9    diag
   14      0.824D-11      0.111D-11       -76.05381304     75.330501    0.00000    0.00000    0.80549    0    orth

 Final occupancy:   3   1   1   0

 !RHF STATE 1.1 Energy                -76.053813040902
 Nuclear energy                         8.93285199
 One-electron energy                 -122.65191533
 Two-electron energy                   37.66525030
 Virial quotient                       -1.00202479
 !RHF STATE 1.1 Dipole moment           0.00000000     0.00000000     0.80548784
 Dipole moment /Debye                   0.00000000     0.00000000     2.04721179

 Orbital energies:

         1.1          2.1          3.1          4.1          5.1
    -20.559639    -1.331655    -0.572419     0.139204     0.585549

         1.2          2.2          3.2
     -0.502305     0.786723     0.952524

         1.3          2.3          3.3
     -0.694689     0.201361     0.532561

         1.4          2.4
      0.855256     2.054755

 HOMO      1.2    -0.502305 =     -13.6684eV
 LUMO      4.1     0.139204 =       3.7879eV
 LUMO-HOMO         0.641509 =      17.4564eV


 **********************************************************************************************************************************
 DATASETS  * FILE   NREC   LENGTH (MB)   RECORD NAMES
              1      20       24.65       500      610      700      900      950      970     1000      129      960     1100   
                                          VAR    BASINP    GEOM    SYMINP    ZMAT    AOBASIS   BASIS     P2S    ABASIS      S 
                                         1400     1410     1200     1210     1080     1600     1650     1300     1700     2100   
                                           T        V       H0       H01     AOSYM     SMH    MOLCAS    ERIS     OPER      RHF  

              2       5        2.81       700     1000      520     2100     5600   
                                         GEOM     BASIS   MCVARS     RHF     GINFO   

 PROGRAMS   *        TOTAL       RHF   CCSD(T)       RHF       INT
 CPU TIMES  *         1.10      0.54      0.16      0.05      0.24
 REAL TIME  *         2.31 SEC
 DISK USED  *        34.90 MB      
 **********************************************************************************************************************************


 PROGRAM * CCSD (Closed-shell coupled cluster)     Authors: C. Hampel, H.-J. Werner, 1991, M. Deegan, P.J. Knowles, 1992


 Convergence thresholds:  THRVAR = 1.00D-14  THRDEN = 1.00D-10

 CCSD(T)     terms to be evaluated (factor= 1.000)


 Number of core orbitals:           1 (   1   0   0   0 )
 Number of closed-shell orbitals:   4 (   2   1   1   0 )
 Number of external orbitals:      53 (  20  10  16   7 )

 Molecular orbitals read from record     2100.1  Type=RHF/CANONICAL (state 1.1)

 Number of N-1 electron functions:               4
 Number of N-2 electron functions:              10
 Number of singly external CSFs:                66
 Number of doubly external CSFs:              5929
 Total number of CSFs:                        5996

 Length of J-op  integral file:               0.00 MB
 Length of K-op  integral file:               0.10 MB
 Length of 3-ext integral record:             0.00 MB

 Memory could be reduced to 0.56 Mwords without degradation in triples

 Integral transformation finished. Total CPU:   0.01 sec, npass=  1  Memory used:   0.12 MW

 Reference energy:                    -76.05381304

 MP2 singlet pair energy:              -0.16761317
 MP2 triplet pair energy:              -0.09589875
 MP2 correlation energy:               -0.26351192
 MP2 total energy:                    -76.31732496

 SCS-MP2 correlation energy:           -0.26080614   (PS=  1.200000  PT=  0.333333)
 SCS-MP2 total energy:                -76.31461918

 ITER.      SQ.NORM     CORR.ENERGY   TOTAL ENERGY   ENERGY CHANGE        DEN1      VAR(S)    VAR(P)  DIIS     TIME  TIME/IT
   1      1.06217101    -0.26870792   -76.32252096    -0.00519600     0.00006337  0.49D-03  0.89D-03  1  1     0.02     0.01
   2      1.06555880    -0.26915703   -76.32297007    -0.00044911    -0.00468578  0.88D-05  0.98D-04  2  2     0.03     0.01
   3      1.06673959    -0.26923197   -76.32304501    -0.00007494    -0.00090131  0.19D-05  0.47D-05  3  3     0.03     0.01
   4      1.06705510    -0.26924440   -76.32305745    -0.00001243    -0.00018219  0.15D-06  0.25D-06  4  4     0.04     0.01
   5      1.06710040    -0.26924160   -76.32305464     0.00000280    -0.00002173  0.51D-07  0.15D-07  5  5     0.05     0.01
   6      1.06710874    -0.26924146   -76.32305450     0.00000014    -0.00000212  0.76D-08  0.17D-08  6  6     0.06     0.01
   7      1.06711107    -0.26924161   -76.32305465    -0.00000015    -0.00000038  0.11D-08  0.24D-09  6  1     0.07     0.01
   8      1.06711189    -0.26924163   -76.32305467    -0.00000001     0.00000052  0.40D-10  0.18D-10  6  2     0.07     0.01
   9      1.06711215    -0.26924161   -76.32305465     0.00000002    -0.00000009  0.18D-11  0.17D-11  6  3     0.08     0.01
  10      1.06711220    -0.26924160   -76.32305464     0.00000001     0.00000003  0.59D-13  0.95D-13  6  4     0.09     0.01
  11      1.06711221    -0.26924160   -76.32305464     0.00000000    -0.00000001  0.23D-14  0.71D-14  6  5     0.10     0.01
  12      1.06711221    -0.26924160   -76.32305464    -0.00000000     0.00000000  0.21D-15  0.52D-15  6  6     0.10     0.01
  13      1.06711221    -0.26924160   -76.32305464    -0.00000000     0.00000000  0.50D-16  0.43D-16  6  1     0.11     0.01
  14      1.06711220    -0.26924160   -76.32305464    -0.00000000     0.00000000  0.98D-17  0.46D-17  6  2     0.12     0.01

 Norm of t1 vector:      0.02758598      S-energy:     0.00000000      T1 diagnostic:  0.00689650
                                                                       D1 diagnostic:  0.01149373

 Total CPU time for triples:      0.03 sec


 RESULTS
 =======

  Reference energy                    -76.053813040902
  CCSD singlet pair energy             -0.184171308192
  CCSD triplet pair energy             -0.085070293017
  CCSD correlation energy              -0.269241601170

  Triples (T) contribution             -0.007879140807
  Total correlation energy             -0.277120741977

  CCSD total energy                   -76.323054642072
  CCSD[T] energy                      -76.331140366148
  CCSD-T energy                       -76.330787866393
 !CCSD(T) total energy                -76.330933782879

 Timing summary (sec):

 STEP                 CPU(USER)    SYS     CPU(TOT)    WALL
 Transformation          0.01      0.01      0.02      0.01
 CCSD iterations         0.11      0.01      0.12      0.13
 Triples                 0.03      0.00      0.03      0.03

 Program statistics:

 Available memory in ccsd:               999998800
 Min. memory needed in ccsd:                 31875
 Max. memory used in ccsd:                   36141
 Max. memory used in cckext:                 65678 (14 integral passes)



 **********************************************************************************************************************************
 DATASETS  * FILE   NREC   LENGTH (MB)   RECORD NAMES
              1      21       25.45       500      610      700      900      950      970     1000      129      960     1100   
                                          VAR    BASINP    GEOM    SYMINP    ZMAT    AOBASIS   BASIS     P2S    ABASIS      S 
                                         1400     1410     1200     1210     1080     1600     1650     1300     1700     2100   
                                           T        V       H0       H01     AOSYM     SMH    MOLCAS    ERIS     OPER      RHF  
                                         1380   
                                         JKOP   

              2       5        2.81       700     1000      520     2100     5600   
                                         GEOM     BASIS   MCVARS     RHF     GINFO   

 PROGRAMS   *        TOTAL   CCSD(T)   CCSD(T)       RHF       INT
 CPU TIMES  *         1.27      0.17      0.16      0.05      0.24
 REAL TIME  *         2.51 SEC
 DISK USED  *        34.90 MB      
 **********************************************************************************************************************************
 Starting task   2 Incrementing variable R1       by  -0.00529 ANG to    0.97471 ANG. CPU=    0.78 sec, Elapsed=    0.78 sec


 Recomputing integrals since geometry changed


 PROGRAM * SEWARD (Integral evaluation for generally contracted gaussian basis sets)     Author: Roland Lindh, 1990

 Geometry written to block  1 of record 700

 Orientation using atomic masses  
 Molecule type: Asymmetric top,     Order of principal axis = 2
 Symmetry elements: X,Y
 Rotational constants:     275.4297327    792.7374985    422.0765506 GHz  (calculated with average atomic masses)

 Point group  C2v 



 ATOMIC COORDINATES

 NR  ATOM    CHARGE       X              Y              Z

   1  O       8.00    0.000000000    0.000000000   -0.126183550
   2  H       1.00    0.000000000    1.456396113    1.001478805
   3  H       1.00    0.000000000   -1.456396113    1.001478805

 Bond lengths in Bohr (Angstrom)

 1-2  1.841931602  1-3  1.841931602
     ( 0.974708228)     ( 0.974708228)

 Bond angles

  2-1-3  104.50000000

 NUCLEAR CHARGE:                   10
 NUMBER OF PRIMITIVE AOS:          81
 NUMBER OF SYMMETRY AOS:           74
 NUMBER OF CONTRACTIONS:           58   (  23A1  +  11B1  +  17B2  +   7A2  )
 NUMBER OF CORE ORBITALS:           1   (   1A1  +   0B1  +   0B2  +   0A2  )
 NUMBER OF VALENCE ORBITALS:        6   (   3A1  +   1B1  +   2B2  +   0A2  )


 NUCLEAR REPULSION ENERGY    9.02984639

 Eigenvalues of metric

         1 0.268E-02 0.613E-02 0.113E-01 0.431E-01 0.864E-01 0.116E+00 0.175E+00 0.273E+00
         2 0.413E-01 0.112E+00 0.256E+00 0.452E+00 0.530E+00 0.716E+00 0.110E+01 0.133E+01
         3 0.487E-02 0.831E-02 0.483E-01 0.717E-01 0.957E-01 0.178E+00 0.282E+00 0.334E+00
         4 0.122E+00 0.324E+00 0.550E+00 0.890E+00 0.121E+01 0.132E+01 0.229E+01


 Contracted 2-electron integrals neglected if value below      1.0D-14
 AO integral compression algorithm  1   Integral accuracy      1.0D-14

     4.456 MB (compressed) written to integral file (100.0%)


 NUMBER OF SORTED TWO-ELECTRON INTEGRALS:     396151.     BUFFER LENGTH:  32768
 NUMBER OF SEGMENTS:   1  SEGMENT LENGTH:     396151      RECORD LENGTH: 524288

 Memory used in sort:       0.95 MW

 SORT1 READ      562034. AND WROTE      366996. INTEGRALS IN      2 RECORDS. CPU TIME:     0.01 SEC, REAL TIME:     0.01 SEC
 SORT2 READ      366996. AND WROTE      396151. INTEGRALS IN     17 RECORDS. CPU TIME:     0.02 SEC, REAL TIME:     0.03 SEC

 FILE SIZES:   FILE 1:    23.6 MBYTE,  FILE 4:     8.4 MBYTE,   TOTAL:     32.0 MBYTE

 OPERATOR DM      FOR CENTER  0  COORDINATES:    0.000000    0.000000    0.000000

 PROGRAM * RHF-SCF (CLOSED SHELL)       Authors: W. Meyer, H.-J. Werner


 NUMBER OF ELECTRONS:       5+    5-
 CONVERGENCE THRESHOLDS:    1.00E-10 (Density)    1.00E-11 (Energy)
 MAX. NUMBER OF ITERATIONS:       60
 INTERPOLATION TYPE:            DIIS
 INTERPOLATION STEPS:              2 (START)      1 (STEP)
 LEVEL SHIFTS:                  0.00 (CLOSED)  0.00 (OPEN) 

 Number of closed-shell orbitals:    5 (   3   1   1   0 )


 Molecular orbitals read from record     2100.2  Type=RHF/CANONICAL (state 1.1)

 Molecular orbital dump at record        2100.1

 ITERATION    DDIFF          GRAD             ENERGY        2-EL.EN.            DIPOLE MOMENTS         DIIS   ORB.
    1      0.000D+00      0.000D+00       -76.05539277     75.452962    0.00000    0.00000    0.80023    0    start
    2      0.000D+00      0.496D-03       -76.05540729     75.493387    0.00000    0.00000    0.80137    1    diag
    3      0.109D-02      0.160D-03       -76.05540866     75.474032    0.00000    0.00000    0.80116    2    diag
    4      0.208D-03      0.649D-04       -76.05540899     75.481165    0.00000    0.00000    0.80200    3    diag
    5      0.665D-04      0.129D-04       -76.05540902     75.480624    0.00000    0.00000    0.80215    4    diag
    6      0.196D-04      0.345D-05       -76.05540902     75.480670    0.00000    0.00000    0.80225    5    diag
    7      0.721D-05      0.653D-06       -76.05540902     75.480671    0.00000    0.00000    0.80225    6    diag
    8      0.144D-05      0.864D-07       -76.05540902     75.480671    0.00000    0.00000    0.80225    7    orth
    9      0.177D-06      0.132D-07       -76.05540902     75.480671    0.00000    0.00000    0.80225    8    diag
   10      0.297D-07      0.198D-08       -76.05540902     75.480671    0.00000    0.00000    0.80225    9    diag
   11      0.380D-08      0.269D-09       -76.05540902     75.480671    0.00000    0.00000    0.80225    9    diag
   12      0.620D-09      0.481D-10       -76.05540902     75.480671    0.00000    0.00000    0.80225    9    diag
   13      0.106D-09      0.521D-11       -76.05540902     75.480671    0.00000    0.00000    0.80225    9    diag
   14      0.815D-11      0.107D-11       -76.05540902     75.480671    0.00000    0.00000    0.80225    0    orth

 Final occupancy:   3   1   1   0

 !RHF STATE 1.1 Energy                -76.055409021306
 Nuclear energy                         9.02984639
 One-electron energy                 -122.82559072
 Two-electron energy                   37.74033531
 Virial quotient                       -1.00153691
 !RHF STATE 1.1 Dipole moment           0.00000000     0.00000000     0.80225409
 Dipole moment /Debye                   0.00000000     0.00000000     2.03899294

 Orbital energies:

         1.1          2.1          3.1          4.1          5.1
    -20.557813    -1.336820    -0.574427     0.140395     0.591897

         1.2          2.2          3.2
     -0.503098     0.787126     0.953383

         1.3          2.3          3.3
     -0.700301     0.202415     0.536962

         1.4          2.4
      0.857477     2.059091

 HOMO      1.2    -0.503098 =     -13.6900eV
 LUMO      4.1     0.140395 =       3.8203eV
 LUMO-HOMO         0.643493 =      17.5103eV


 **********************************************************************************************************************************
 DATASETS  * FILE   NREC   LENGTH (MB)   RECORD NAMES
              1      20       24.65       500      610      700      900      950      970     1000      129      960     1100   
                                          VAR    BASINP    GEOM    SYMINP    ZMAT    AOBASIS   BASIS     P2S    ABASIS      S 
                                         1400     1410     1200     1210     1080     1600     1650     1300     1700     2100   
                                           T        V       H0       H01     AOSYM     SMH    MOLCAS    ERIS     OPER      RHF  

              2       5        2.81       700     1000      520     2100     5600   
                                         GEOM     BASIS   MCVARS     RHF     GINFO   

 PROGRAMS   *        TOTAL       RHF   CCSD(T)       RHF       INT
 CPU TIMES  *         1.79      0.52      0.16      0.05      0.24
 REAL TIME  *         3.30 SEC
 DISK USED  *        34.90 MB      
 **********************************************************************************************************************************


 PROGRAM * CCSD (Closed-shell coupled cluster)     Authors: C. Hampel, H.-J. Werner, 1991, M. Deegan, P.J. Knowles, 1992


 Convergence thresholds:  THRVAR = 1.00D-14  THRDEN = 1.00D-10

 CCSD(T)     terms to be evaluated (factor= 1.000)


 Number of core orbitals:           1 (   1   0   0   0 )
 Number of closed-shell orbitals:   4 (   2   1   1   0 )
 Number of external orbitals:      53 (  20  10  16   7 )

 Molecular orbitals read from record     2100.1  Type=RHF/CANONICAL (state 1.1)

 Number of N-1 electron functions:               4
 Number of N-2 electron functions:              10
 Number of singly external CSFs:                66
 Number of doubly external CSFs:              5929
 Total number of CSFs:                        5996

 Length of J-op  integral file:               0.00 MB
 Length of K-op  integral file:               0.10 MB
 Length of 3-ext integral record:             0.00 MB

 Memory could be reduced to 0.56 Mwords without degradation in triples

 Integral transformation finished. Total CPU:   0.01 sec, npass=  1  Memory used:   0.12 MW

 Reference energy:                    -76.05540902

 MP2 singlet pair energy:              -0.16707836
 MP2 triplet pair energy:              -0.09565652
 MP2 correlation energy:               -0.26273488
 MP2 total energy:                    -76.31814390

 SCS-MP2 correlation energy:           -0.26001364   (PS=  1.200000  PT=  0.333333)
 SCS-MP2 total energy:                -76.31542267

 ITER.      SQ.NORM     CORR.ENERGY   TOTAL ENERGY   ENERGY CHANGE        DEN1      VAR(S)    VAR(P)  DIIS     TIME  TIME/IT
   1      1.06151840    -0.26801905   -76.32342807    -0.00528417    -0.00013932  0.47D-03  0.86D-03  1  1     0.02     0.01
   2      1.06480137    -0.26845571   -76.32386473    -0.00043667    -0.00459947  0.83D-05  0.93D-04  2  2     0.03     0.01
   3      1.06591737    -0.26852510   -76.32393412    -0.00006939    -0.00086467  0.17D-05  0.44D-05  3  3     0.03     0.01
   4      1.06621244    -0.26853657   -76.32394559    -0.00001147    -0.00017326  0.13D-06  0.23D-06  4  4     0.04     0.01
   5      1.06625371    -0.26853384   -76.32394286     0.00000273    -0.00002036  0.44D-07  0.13D-07  5  5     0.05     0.01
   6      1.06626101    -0.26853370   -76.32394272     0.00000013    -0.00000194  0.67D-08  0.15D-08  6  6     0.05     0.01
   7      1.06626305    -0.26853384   -76.32394286    -0.00000014    -0.00000035  0.98D-09  0.21D-09  6  1     0.06     0.01
   8      1.06626378    -0.26853386   -76.32394288    -0.00000001     0.00000048  0.35D-10  0.16D-10  6  2     0.07     0.01
   9      1.06626399    -0.26853384   -76.32394286     0.00000002    -0.00000007  0.22D-11  0.16D-11  6  6     0.08     0.01
  10      1.06626405    -0.26853383   -76.32394285     0.00000001     0.00000002  0.33D-13  0.76D-13  6  3     0.09     0.01
  11      1.06626406    -0.26853383   -76.32394285     0.00000000    -0.00000001  0.18D-14  0.34D-14  6  4     0.09     0.01
  12      1.06626406    -0.26853383   -76.32394285     0.00000000    -0.00000000  0.12D-15  0.22D-15  6  5     0.10     0.01
  13      1.06626406    -0.26853383   -76.32394285     0.00000000    -0.00000000  0.68D-17  0.17D-16  6  1     0.11     0.01
  14      1.06626406    -0.26853383   -76.32394285     0.00000000    -0.00000000  0.10D-17  0.14D-17  6  2     0.12     0.01

 Norm of t1 vector:      0.02698748      S-energy:    -0.00000000      T1 diagnostic:  0.00674687
                                                                       D1 diagnostic:  0.01120525

 Total CPU time for triples:      0.02 sec


 RESULTS
 =======

  Reference energy                    -76.055409021306
  CCSD singlet pair energy             -0.183494986184
  CCSD triplet pair energy             -0.085038845378
  CCSD correlation energy              -0.268533831577

  Triples (T) contribution             -0.007789182733
  Total correlation energy             -0.276323014310

  CCSD total energy                   -76.323942852883
  CCSD[T] energy                      -76.331932910735
  CCSD-T energy                       -76.331589966658
 !CCSD(T) total energy                -76.331732035616

 Timing summary (sec):

 STEP                 CPU(USER)    SYS     CPU(TOT)    WALL
 Transformation          0.01      0.00      0.01      0.01
 CCSD iterations         0.11      0.02      0.13      0.13
 Triples                 0.02      0.01      0.03      0.02

 Program statistics:

 Available memory in ccsd:               999998800
 Min. memory needed in ccsd:                 31875
 Max. memory used in ccsd:                   36141
 Max. memory used in cckext:                 65678 (14 integral passes)



 **********************************************************************************************************************************
 DATASETS  * FILE   NREC   LENGTH (MB)   RECORD NAMES
              1      21       25.45       500      610      700      900      950      970     1000      129      960     1100   
                                          VAR    BASINP    GEOM    SYMINP    ZMAT    AOBASIS   BASIS     P2S    ABASIS      S 
                                         1400     1410     1200     1210     1080     1600     1650     1300     1700     2100   
                                           T        V       H0       H01     AOSYM     SMH    MOLCAS    ERIS     OPER      RHF  
                                         1380   
                                         JKOP   

              2       5        2.81       700     1000      520     2100     5600   
                                         GEOM     BASIS   MCVARS     RHF     GINFO   

 PROGRAMS   *        TOTAL   CCSD(T)   CCSD(T)       RHF       INT
 CPU TIMES  *         1.95      0.16      0.16      0.05      0.24
 REAL TIME  *         3.49 SEC
 DISK USED  *        34.90 MB      
 **********************************************************************************************************************************
 Starting task   3 Incrementing variable A1       by   1.00000 DEG to  105.50000 DEG. CPU=    1.76 sec, Elapsed=    1.76 sec


 Recomputing integrals since geometry changed


 PROGRAM * SEWARD (Integral evaluation for generally contracted gaussian basis sets)     Author: Roland Lindh, 1990

 Geometry written to block  1 of record 700

 Orientation using atomic masses  
 Molecule type: Asymmetric top,     Order of principal axis = 2
 Symmetry elements: X,Y
 Rotational constants:     272.1952736    802.2411984    411.9761181 GHz  (calculated with average atomic masses)

 Point group  C2v 



 ATOMIC COORDINATES

 NR  ATOM    CHARGE       X              Y              Z

   1  O       8.00    0.000000000    0.000000000   -0.125433911
   2  H       1.00    0.000000000    1.474141264    0.995529154
   3  H       1.00    0.000000000   -1.474141264    0.995529154

 Bond lengths in Bohr (Angstrom)

 1-2  1.851931602  1-3  1.851931602
     ( 0.980000000)     ( 0.980000000)

 Bond angles

  2-1-3  105.50000000

 NUCLEAR CHARGE:                   10
 NUMBER OF PRIMITIVE AOS:          81
 NUMBER OF SYMMETRY AOS:           74
 NUMBER OF CONTRACTIONS:           58   (  23A1  +  11B1  +  17B2  +   7A2  )
 NUMBER OF CORE ORBITALS:           1   (   1A1  +   0B1  +   0B2  +   0A2  )
 NUMBER OF VALENCE ORBITALS:        6   (   3A1  +   1B1  +   2B2  +   0A2  )


 NUCLEAR REPULSION ENERGY    8.97880845

 Eigenvalues of metric

         1 0.270E-02 0.625E-02 0.115E-01 0.434E-01 0.873E-01 0.117E+00 0.178E+00 0.274E+00
         2 0.416E-01 0.113E+00 0.260E+00 0.453E+00 0.530E+00 0.721E+00 0.110E+01 0.133E+01
         3 0.490E-02 0.858E-02 0.483E-01 0.727E-01 0.972E-01 0.181E+00 0.284E+00 0.336E+00
         4 0.123E+00 0.327E+00 0.554E+00 0.893E+00 0.121E+01 0.132E+01 0.229E+01


 Contracted 2-electron integrals neglected if value below      1.0D-14
 AO integral compression algorithm  1   Integral accuracy      1.0D-14

     4.456 MB (compressed) written to integral file (100.0%)


 NUMBER OF SORTED TWO-ELECTRON INTEGRALS:     396151.     BUFFER LENGTH:  32768
 NUMBER OF SEGMENTS:   1  SEGMENT LENGTH:     396151      RECORD LENGTH: 524288

 Memory used in sort:       0.95 MW

 SORT1 READ      562034. AND WROTE      366996. INTEGRALS IN      2 RECORDS. CPU TIME:     0.01 SEC, REAL TIME:     0.01 SEC
 SORT2 READ      366996. AND WROTE      396151. INTEGRALS IN     17 RECORDS. CPU TIME:     0.02 SEC, REAL TIME:     0.03 SEC

 FILE SIZES:   FILE 1:    23.6 MBYTE,  FILE 4:     8.4 MBYTE,   TOTAL:     32.0 MBYTE

 OPERATOR DM      FOR CENTER  0  COORDINATES:    0.000000    0.000000    0.000000

 PROGRAM * RHF-SCF (CLOSED SHELL)       Authors: W. Meyer, H.-J. Werner


 NUMBER OF ELECTRONS:       5+    5-
 CONVERGENCE THRESHOLDS:    1.00E-10 (Density)    1.00E-11 (Energy)
 MAX. NUMBER OF ITERATIONS:       60
 INTERPOLATION TYPE:            DIIS
 INTERPOLATION STEPS:              2 (START)      1 (STEP)
 LEVEL SHIFTS:                  0.00 (CLOSED)  0.00 (OPEN) 

 Number of closed-shell orbitals:    5 (   3   1   1   0 )


 Molecular orbitals read from record     2100.2  Type=RHF/CANONICAL (state 1.1)

 Molecular orbital dump at record        2100.1

 ITERATION    DDIFF          GRAD             ENERGY        2-EL.EN.            DIPOLE MOMENTS         DIIS   ORB.
    1      0.000D+00      0.000D+00       -76.05462545     75.405796    0.00000    0.00000    0.79701    0    start
    2      0.000D+00      0.390D-03       -76.05463624     75.408246    0.00000    0.00000    0.79703    1    diag
    3      0.782D-03      0.716D-04       -76.05463693     75.406809    0.00000    0.00000    0.79719    2    diag
    4      0.153D-03      0.145D-04       -76.05463696     75.408315    0.00000    0.00000    0.79744    3    diag
    5      0.303D-04      0.741D-05       -76.05463697     75.407654    0.00000    0.00000    0.79745    4    diag
    6      0.869D-05      0.129D-05       -76.05463697     75.407705    0.00000    0.00000    0.79749    5    diag
    7      0.260D-05      0.283D-06       -76.05463697     75.407702    0.00000    0.00000    0.79749    6    diag
    8      0.644D-06      0.491D-07       -76.05463697     75.407702    0.00000    0.00000    0.79749    7    orth
    9      0.115D-06      0.108D-07       -76.05463697     75.407702    0.00000    0.00000    0.79749    8    diag
   10      0.211D-07      0.147D-08       -76.05463697     75.407702    0.00000    0.00000    0.79749    9    diag
   11      0.309D-08      0.277D-09       -76.05463697     75.407702    0.00000    0.00000    0.79749    9    diag
   12      0.574D-09      0.448D-10       -76.05463697     75.407702    0.00000    0.00000    0.79749    9    diag
   13      0.889D-10      0.397D-11       -76.05463697     75.407702    0.00000    0.00000    0.79749    0    orth

 Final occupancy:   3   1   1   0

 !RHF STATE 1.1 Energy                -76.054636968241
 Nuclear energy                         8.97880845
 One-electron energy                 -122.73729665
 Two-electron energy                   37.70385123
 Virial quotient                       -1.00180597
 !RHF STATE 1.1 Dipole moment           0.00000000     0.00000000     0.79749243
 Dipole moment /Debye                   0.00000000     0.00000000     2.02689082

 Orbital energies:

         1.1          2.1          3.1          4.1          5.1
    -20.558207    -1.333492    -0.571460     0.139958     0.585124

         1.2          2.2          3.2
     -0.502347     0.787175     0.957073

         1.3          2.3          3.3
     -0.699291     0.201710     0.536508

         1.4          2.4
      0.854262     2.059169

 HOMO      1.2    -0.502347 =     -13.6696eV
 LUMO      4.1     0.139958 =       3.8085eV
 LUMO-HOMO         0.642305 =      17.4780eV


 **********************************************************************************************************************************
 DATASETS  * FILE   NREC   LENGTH (MB)   RECORD NAMES
              1      20       24.65       500      610      700      900      950      970     1000      129      960     1100   
                                          VAR    BASINP    GEOM    SYMINP    ZMAT    AOBASIS   BASIS     P2S    ABASIS      S 
                                         1400     1410     1200     1210     1080     1600     1650     1300     1700     2100   
                                           T        V       H0       H01     AOSYM     SMH    MOLCAS    ERIS     OPER      RHF  

              2       5        2.81       700     1000      520     2100     5600   
                                         GEOM     BASIS   MCVARS     RHF     GINFO   

 PROGRAMS   *        TOTAL       RHF   CCSD(T)       RHF       INT
 CPU TIMES  *         2.52      0.56      0.16      0.05      0.24
 REAL TIME  *         4.10 SEC
 DISK USED  *        34.90 MB      
 **********************************************************************************************************************************


 PROGRAM * CCSD (Closed-shell coupled cluster)     Authors: C. Hampel, H.-J. Werner, 1991, M. Deegan, P.J. Knowles, 1992


 Convergence thresholds:  THRVAR = 1.00D-14  THRDEN = 1.00D-10

 CCSD(T)     terms to be evaluated (factor= 1.000)


 Number of core orbitals:           1 (   1   0   0   0 )
 Number of closed-shell orbitals:   4 (   2   1   1   0 )
 Number of external orbitals:      53 (  20  10  16   7 )

 Molecular orbitals read from record     2100.1  Type=RHF/CANONICAL (state 1.1)

 Number of N-1 electron functions:               4
 Number of N-2 electron functions:              10
 Number of singly external CSFs:                66
 Number of doubly external CSFs:              5929
 Total number of CSFs:                        5996

 Length of J-op  integral file:               0.00 MB
 Length of K-op  integral file:               0.10 MB
 Length of 3-ext integral record:             0.00 MB

 Memory could be reduced to 0.56 Mwords without degradation in triples

 Integral transformation finished. Total CPU:   0.00 sec, npass=  1  Memory used:   0.12 MW

 Reference energy:                    -76.05463697

 MP2 singlet pair energy:              -0.16728910
 MP2 triplet pair energy:              -0.09573834
 MP2 correlation energy:               -0.26302744
 MP2 total energy:                    -76.31766441

 SCS-MP2 correlation energy:           -0.26031744   (PS=  1.200000  PT=  0.333333)
 SCS-MP2 total energy:                -76.31495441

 ITER.      SQ.NORM     CORR.ENERGY   TOTAL ENERGY   ENERGY CHANGE        DEN1      VAR(S)    VAR(P)  DIIS     TIME  TIME/IT
   1      1.06180109    -0.26828065   -76.32291761    -0.00525321    -0.00006153  0.47D-03  0.87D-03  1  1     0.02     0.01
   2      1.06512966    -0.26872439   -76.32336136    -0.00044375    -0.00463569  0.85D-05  0.95D-04  2  2     0.03     0.01
   3      1.06627407    -0.26879636   -76.32343333    -0.00007197    -0.00088095  0.18D-05  0.45D-05  3  3     0.03     0.01
   4      1.06657784    -0.26880835   -76.32344531    -0.00001198    -0.00017701  0.14D-06  0.24D-06  4  4     0.04     0.01
   5      1.06662109    -0.26880559   -76.32344255     0.00000276    -0.00002103  0.49D-07  0.14D-07  5  5     0.05     0.01
   6      1.06662893    -0.26880546   -76.32344243     0.00000012    -0.00000201  0.73D-08  0.16D-08  6  6     0.06     0.01
   7      1.06663117    -0.26880561   -76.32344258    -0.00000014    -0.00000037  0.11D-08  0.23D-09  6  1     0.07     0.01
   8      1.06663196    -0.26880562   -76.32344259    -0.00000002     0.00000051  0.37D-10  0.17D-10  6  2     0.07     0.01
   9      1.06663221    -0.26880560   -76.32344257     0.00000002    -0.00000009  0.17D-11  0.16D-11  6  3     0.08     0.01
  10      1.06663225    -0.26880560   -76.32344257     0.00000001     0.00000003  0.57D-13  0.86D-13  6  4     0.09     0.01
  11      1.06663226    -0.26880560   -76.32344257     0.00000000    -0.00000001  0.25D-14  0.65D-14  6  5     0.10     0.01
  12      1.06663226    -0.26880560   -76.32344257    -0.00000000     0.00000000  0.23D-15  0.46D-15  6  6     0.11     0.01
  13      1.06663226    -0.26880560   -76.32344257    -0.00000000     0.00000000  0.46D-16  0.38D-16  6  1     0.11     0.01
  14      1.06663226    -0.26880560   -76.32344257    -0.00000000     0.00000000  0.87D-17  0.40D-17  6  2     0.12     0.01

 Norm of t1 vector:      0.02719577      S-energy:     0.00000000      T1 diagnostic:  0.00679894
                                                                       D1 diagnostic:  0.01133510

 Total CPU time for triples:      0.02 sec


 RESULTS
 =======

  Reference energy                    -76.054636968241
  CCSD singlet pair energy             -0.183774159455
  CCSD triplet pair energy             -0.085031438120
  CCSD correlation energy              -0.268805597538

  Triples (T) contribution             -0.007823215970
  Total correlation energy             -0.276628813509

  CCSD total energy                   -76.323442565780
  CCSD[T] energy                      -76.331468603723
  CCSD-T energy                       -76.331122282268
 !CCSD(T) total energy                -76.331265781750

 Timing summary (sec):

 STEP                 CPU(USER)    SYS     CPU(TOT)    WALL
 CCSD iterations         0.12      0.02      0.14      0.14
 Triples                 0.02      0.00      0.02      0.02

 Program statistics:

 Available memory in ccsd:               999998800
 Min. memory needed in ccsd:                 31875
 Max. memory used in ccsd:                   36141
 Max. memory used in cckext:                 65678 (14 integral passes)



 **********************************************************************************************************************************
 DATASETS  * FILE   NREC   LENGTH (MB)   RECORD NAMES
              1      21       25.45       500      610      700      900      950      970     1000      129      960     1100   
                                          VAR    BASINP    GEOM    SYMINP    ZMAT    AOBASIS   BASIS     P2S    ABASIS      S 
                                         1400     1410     1200     1210     1080     1600     1650     1300     1700     2100   
                                           T        V       H0       H01     AOSYM     SMH    MOLCAS    ERIS     OPER      RHF  
                                         1380   
                                         JKOP   

              2       5        2.81       700     1000      520     2100     5600   
                                         GEOM     BASIS   MCVARS     RHF     GINFO   

 PROGRAMS   *        TOTAL   CCSD(T)   CCSD(T)       RHF       INT
 CPU TIMES  *         2.68      0.17      0.16      0.05      0.24
 REAL TIME  *         4.28 SEC
 DISK USED  *        34.90 MB      
 **********************************************************************************************************************************
 Starting task   4 Incrementing variable A1       by  -1.00000 DEG to  103.50000 DEG. CPU=    2.55 sec, Elapsed=    2.55 sec


 Recomputing integrals since geometry changed


 PROGRAM * SEWARD (Integral evaluation for generally contracted gaussian basis sets)     Author: Roland Lindh, 1990

 Geometry written to block  1 of record 700

 Orientation using atomic masses  
 Molecule type: Asymmetric top,     Order of principal axis = 2
 Symmetry elements: X,Y
 Rotational constants:     272.7329716    766.8749697    423.2631312 GHz  (calculated with average atomic masses)

 Point group  C2v 



 ATOMIC COORDINATES

 NR  ATOM    CHARGE       X              Y              Z

   1  O       8.00    0.000000000    0.000000000   -0.128293650
   2  H       1.00    0.000000000    1.454353242    1.018225999
   3  H       1.00    0.000000000   -1.454353242    1.018225999

 Bond lengths in Bohr (Angstrom)

 1-2  1.851931602  1-3  1.851931602
     ( 0.980000000)     ( 0.980000000)

 Bond angles

  2-1-3  103.50000000

 NUCLEAR CHARGE:                   10
 NUMBER OF PRIMITIVE AOS:          81
 NUMBER OF SYMMETRY AOS:           74
 NUMBER OF CONTRACTIONS:           58   (  23A1  +  11B1  +  17B2  +   7A2  )
 NUMBER OF CORE ORBITALS:           1   (   1A1  +   0B1  +   0B2  +   0A2  )
 NUMBER OF VALENCE ORBITALS:        6   (   3A1  +   1B1  +   2B2  +   0A2  )


 NUCLEAR REPULSION ENERGY    8.98342336

 Eigenvalues of metric

         1 0.272E-02 0.624E-02 0.115E-01 0.436E-01 0.871E-01 0.117E+00 0.177E+00 0.274E+00
         2 0.415E-01 0.113E+00 0.259E+00 0.453E+00 0.535E+00 0.719E+00 0.110E+01 0.133E+01
         3 0.492E-02 0.852E-02 0.485E-01 0.721E-01 0.963E-01 0.181E+00 0.282E+00 0.341E+00
         4 0.125E+00 0.326E+00 0.552E+00 0.894E+00 0.121E+01 0.132E+01 0.228E+01


 Contracted 2-electron integrals neglected if value below      1.0D-14
 AO integral compression algorithm  1   Integral accuracy      1.0D-14

     4.456 MB (compressed) written to integral file (100.0%)


 NUMBER OF SORTED TWO-ELECTRON INTEGRALS:     396151.     BUFFER LENGTH:  32768
 NUMBER OF SEGMENTS:   1  SEGMENT LENGTH:     396151      RECORD LENGTH: 524288

 Memory used in sort:       0.95 MW

 SORT1 READ      562034. AND WROTE      366996. INTEGRALS IN      2 RECORDS. CPU TIME:     0.01 SEC, REAL TIME:     0.01 SEC
 SORT2 READ      366996. AND WROTE      396151. INTEGRALS IN     17 RECORDS. CPU TIME:     0.02 SEC, REAL TIME:     0.03 SEC

 FILE SIZES:   FILE 1:    23.6 MBYTE,  FILE 4:     8.4 MBYTE,   TOTAL:     32.0 MBYTE

 OPERATOR DM      FOR CENTER  0  COORDINATES:    0.000000    0.000000    0.000000

 PROGRAM * RHF-SCF (CLOSED SHELL)       Authors: W. Meyer, H.-J. Werner


 NUMBER OF ELECTRONS:       5+    5-
 CONVERGENCE THRESHOLDS:    1.00E-10 (Density)    1.00E-11 (Energy)
 MAX. NUMBER OF ITERATIONS:       60
 INTERPOLATION TYPE:            DIIS
 INTERPOLATION STEPS:              2 (START)      1 (STEP)
 LEVEL SHIFTS:                  0.00 (CLOSED)  0.00 (OPEN) 

 Number of closed-shell orbitals:    5 (   3   1   1   0 )


 Molecular orbitals read from record     2100.2  Type=RHF/CANONICAL (state 1.1)

 Molecular orbital dump at record        2100.1

 ITERATION    DDIFF          GRAD             ENERGY        2-EL.EN.            DIPOLE MOMENTS         DIIS   ORB.
    1      0.000D+00      0.000D+00       -76.05461593     75.405161    0.00000    0.00000    0.81075    0    start
    2      0.000D+00      0.392D-03       -76.05462676     75.402200    0.00000    0.00000    0.81064    1    diag
    3      0.788D-03      0.719D-04       -76.05462744     75.404056    0.00000    0.00000    0.81051    2    diag
    4      0.153D-03      0.154D-04       -76.05462747     75.402307    0.00000    0.00000    0.81025    3    diag
    5      0.292D-04      0.807D-05       -76.05462747     75.403013    0.00000    0.00000    0.81024    4    diag
    6      0.100D-04      0.127D-05       -76.05462747     75.402971    0.00000    0.00000    0.81020    5    diag
    7      0.254D-05      0.292D-06       -76.05462747     75.402974    0.00000    0.00000    0.81020    6    diag
    8      0.655D-06      0.495D-07       -76.05462747     75.402973    0.00000    0.00000    0.81020    7    orth
    9      0.118D-06      0.109D-07       -76.05462747     75.402973    0.00000    0.00000    0.81020    8    diag
   10      0.213D-07      0.149D-08       -76.05462747     75.402973    0.00000    0.00000    0.81020    9    diag
   11      0.311D-08      0.275D-09       -76.05462747     75.402973    0.00000    0.00000    0.81020    9    diag
   12      0.565D-09      0.444D-10       -76.05462747     75.402973    0.00000    0.00000    0.81020    9    diag
   13      0.876D-10      0.412D-11       -76.05462747     75.402973    0.00000    0.00000    0.81020    0    orth

 Final occupancy:   3   1   1   0

 !RHF STATE 1.1 Energy                -76.054627474616
 Nuclear energy                         8.98342336
 One-electron energy                 -122.73953750
 Two-electron energy                   37.70148666
 Virial quotient                       -1.00176120
 !RHF STATE 1.1 Dipole moment           0.00000000     0.00000000     0.81019759
 Dipole moment /Debye                   0.00000000     0.00000000     2.05918200

 Orbital energies:

         1.1          2.1          3.1          4.1          5.1
    -20.559243    -1.334951    -0.575392     0.139638     0.592262

         1.2          2.2          3.2
     -0.503045     0.786717     0.948804

         1.3          2.3          3.3
     -0.695651     0.202078     0.533064

         1.4          2.4
      0.858494     2.054719

 HOMO      1.2    -0.503045 =     -13.6885eV
 LUMO      4.1     0.139638 =       3.7998eV
 LUMO-HOMO         0.642683 =      17.4883eV


 **********************************************************************************************************************************
 DATASETS  * FILE   NREC   LENGTH (MB)   RECORD NAMES
              1      20       24.65       500      610      700      900      950      970     1000      129      960     1100   
                                          VAR    BASINP    GEOM    SYMINP    ZMAT    AOBASIS   BASIS     P2S    ABASIS      S 
                                         1400     1410     1200     1210     1080     1600     1650     1300     1700     2100   
                                           T        V       H0       H01     AOSYM     SMH    MOLCAS    ERIS     OPER      RHF  

              2       5        2.81       700     1000      520     2100     5600   
                                         GEOM     BASIS   MCVARS     RHF     GINFO   

 PROGRAMS   *        TOTAL       RHF   CCSD(T)       RHF       INT
 CPU TIMES  *         3.26      0.58      0.16      0.05      0.24
 REAL TIME  *         4.90 SEC
 DISK USED  *        34.90 MB      
 **********************************************************************************************************************************


 PROGRAM * CCSD (Closed-shell coupled cluster)     Authors: C. Hampel, H.-J. Werner, 1991, M. Deegan, P.J. Knowles, 1992


 Convergence thresholds:  THRVAR = 1.00D-14  THRDEN = 1.00D-10

 CCSD(T)     terms to be evaluated (factor= 1.000)


 Number of core orbitals:           1 (   1   0   0   0 )
 Number of closed-shell orbitals:   4 (   2   1   1   0 )
 Number of external orbitals:      53 (  20  10  16   7 )

 Molecular orbitals read from record     2100.1  Type=RHF/CANONICAL (state 1.1)

 Number of N-1 electron functions:               4
 Number of N-2 electron functions:              10
 Number of singly external CSFs:                66
 Number of doubly external CSFs:              5929
 Total number of CSFs:                        5996

 Length of J-op  integral file:               0.00 MB
 Length of K-op  integral file:               0.10 MB
 Length of 3-ext integral record:             0.00 MB

 Memory could be reduced to 0.56 Mwords without degradation in triples

 Integral transformation finished. Total CPU:   0.01 sec, npass=  1  Memory used:   0.12 MW

 Reference energy:                    -76.05462747

 MP2 singlet pair energy:              -0.16740225
 MP2 triplet pair energy:              -0.09582040
 MP2 correlation energy:               -0.26322265
 MP2 total energy:                    -76.31785013

 SCS-MP2 correlation energy:           -0.26050429   (PS=  1.200000  PT=  0.333333)
 SCS-MP2 total energy:                -76.31513176

 ITER.      SQ.NORM     CORR.ENERGY   TOTAL ENERGY   ENERGY CHANGE        DEN1      VAR(S)    VAR(P)  DIIS     TIME  TIME/IT
   1      1.06188693    -0.26844811   -76.32307559    -0.00522546    -0.00001359  0.48D-03  0.88D-03  1  1     0.02     0.01
   2      1.06522815    -0.26888994   -76.32351741    -0.00044183    -0.00464906  0.85D-05  0.96D-04  2  2     0.03     0.01
   3      1.06637958    -0.26896219   -76.32358967    -0.00007225    -0.00088467  0.18D-05  0.46D-05  3  3     0.03     0.01
   4      1.06668603    -0.26897409   -76.32360156    -0.00001190    -0.00017832  0.14D-06  0.24D-06  4  4     0.04     0.01
   5      1.06672925    -0.26897132   -76.32359879     0.00000277    -0.00002104  0.47D-07  0.14D-07  5  5     0.05     0.01
   6      1.06673702    -0.26897117   -76.32359864     0.00000015    -0.00000204  0.69D-08  0.16D-08  6  6     0.06     0.01
   7      1.06673914    -0.26897131   -76.32359879    -0.00000014    -0.00000036  0.10D-08  0.22D-09  6  1     0.07     0.01
   8      1.06673990    -0.26897133   -76.32359880    -0.00000001     0.00000049  0.37D-10  0.17D-10  6  2     0.07     0.01
   9      1.06674015    -0.26897131   -76.32359878     0.00000002    -0.00000009  0.16D-11  0.16D-11  6  3     0.08     0.01
  10      1.06674019    -0.26897130   -76.32359877     0.00000001     0.00000003  0.53D-13  0.85D-13  6  4     0.09     0.01
  11      1.06674020    -0.26897130   -76.32359877     0.00000000    -0.00000001  0.20D-14  0.64D-14  6  5     0.10     0.01
  12      1.06674020    -0.26897130   -76.32359877    -0.00000000     0.00000000  0.18D-15  0.46D-15  6  6     0.11     0.01
  13      1.06674020    -0.26897130   -76.32359877    -0.00000000     0.00000000  0.43D-16  0.38D-16  6  1     0.11     0.01
  14      1.06674020    -0.26897130   -76.32359877    -0.00000000     0.00000000  0.82D-17  0.40D-17  6  2     0.12     0.01

 Norm of t1 vector:      0.02737373      S-energy:     0.00000000      T1 diagnostic:  0.00684343
                                                                       D1 diagnostic:  0.01135961

 Total CPU time for triples:      0.02 sec


 RESULTS
 =======

  Reference energy                    -76.054627474616
  CCSD singlet pair energy             -0.183890276191
  CCSD triplet pair energy             -0.085081023972
  CCSD correlation energy              -0.268971300127

  Triples (T) contribution             -0.007845232047
  Total correlation energy             -0.276816532174

  CCSD total energy                   -76.323598774743
  CCSD[T] energy                      -76.331648618894
  CCSD-T energy                       -76.331299526051
 !CCSD(T) total energy                -76.331444006790

 Timing summary (sec):

 STEP                 CPU(USER)    SYS     CPU(TOT)    WALL
 Transformation          0.01      0.00      0.01      0.00
 CCSD iterations         0.11      0.02      0.13      0.14
 Triples                 0.02      0.00      0.02      0.02

 Program statistics:

 Available memory in ccsd:               999998800
 Min. memory needed in ccsd:                 31875
 Max. memory used in ccsd:                   36141
 Max. memory used in cckext:                 65678 (14 integral passes)



 **********************************************************************************************************************************
 DATASETS  * FILE   NREC   LENGTH (MB)   RECORD NAMES
              1      21       25.45       500      610      700      900      950      970     1000      129      960     1100   
                                          VAR    BASINP    GEOM    SYMINP    ZMAT    AOBASIS   BASIS     P2S    ABASIS      S 
                                         1400     1410     1200     1210     1080     1600     1650     1300     1700     2100   
                                           T        V       H0       H01     AOSYM     SMH    MOLCAS    ERIS     OPER      RHF  
                                         1380   
                                         JKOP   

              2       5        2.81       700     1000      520     2100     5600   
                                         GEOM     BASIS   MCVARS     RHF     GINFO   

 PROGRAMS   *        TOTAL   CCSD(T)   CCSD(T)       RHF       INT
 CPU TIMES  *         3.42      0.16      0.16      0.05      0.24
 REAL TIME  *         5.08 SEC
 DISK USED  *        34.90 MB      
 **********************************************************************************************************************************
 Numerical gradient completed. CPU-time:     3.35 sec, Elapsed:     3.35 sec

 Numerical gradient for CCSD(T)

 Total Energy           -76.33137938  Dipole moments:    0.000000    0.000000    0.000000

 Variable       Value            Gradient       Hessian                Dipole gradient
 R1             0.980 ANG      0.07542395     3.31933407      0.000000    0.000000    0.000000

 Variable       Value            Gradient       Hessian                Dipole gradient
 A1           104.500 DEG      0.00008911     0.00004898      0.000000    0.000000    0.000000
 Reading points  1 to  1 from record 700.2,  wavefunction type=CCSD(T)         

 Making model hessian for Z-matrix coordinates
 No hessian update for point  1

 Entering Rational Function Geometry Optimization

 Optimization point 1

 Variable                      Last           Current        Next           Gradient       Hessian

 E(CCSD(T)) / Hartree        0.00000000   -76.33137938   -76.33203893
 R1 / ANGSTROM               0.00000000     0.98000000     0.96410581     0.07542395     4.73808314
 A1 / DEGREE                 0.00000000   104.50000000   103.17147839     0.00008911     0.00006630
 Convergence:                0.00000000  (line search)     0.03794445     0.04023789  (total)

 Geometry written to block  2 of record 700


 Recomputing integrals since geometry changed


 PROGRAM * SEWARD (Integral evaluation for generally contracted gaussian basis sets)     Author: Roland Lindh, 1990

 Geometry written to block  2 of record 700

 Orientation using atomic masses  
 Molecule type: Asymmetric top,     Order of principal axis = 2
 Symmetry elements: X,Y
 Rotational constants:     281.8915477    786.6433206    439.3210980 GHz  (calculated with average atomic masses)

 Point group  C2v 



 ATOMIC COORDINATES

 NR  ATOM    CHARGE       X              Y              Z

   1  O       8.00    0.000000000    0.000000000   -0.126671383
   2  H       1.00    0.000000000    1.427526218    1.005350582
   3  H       1.00    0.000000000   -1.427526218    1.005350582

 Bond lengths in Bohr (Angstrom)

 1-2  1.821895945  1-3  1.821895945
     ( 0.964105815)     ( 0.964105815)

 Bond angles

  2-1-3  103.17147839

 NUCLEAR CHARGE:                   10
 NUMBER OF PRIMITIVE AOS:          81
 NUMBER OF SYMMETRY AOS:           74
 NUMBER OF CONTRACTIONS:           58   (  23A1  +  11B1  +  17B2  +   7A2  )
 NUMBER OF CORE ORBITALS:           1   (   1A1  +   0B1  +   0B2  +   0A2  )
 NUMBER OF VALENCE ORBITALS:        6   (   3A1  +   1B1  +   2B2  +   0A2  )


 NUCLEAR REPULSION ENERGY    9.13231654

 Eigenvalues of metric

         1 0.262E-02 0.591E-02 0.110E-01 0.424E-01 0.847E-01 0.114E+00 0.169E+00 0.271E+00
         2 0.406E-01 0.110E+00 0.248E+00 0.449E+00 0.528E+00 0.706E+00 0.110E+01 0.134E+01
         3 0.479E-02 0.781E-02 0.482E-01 0.696E-01 0.930E-01 0.172E+00 0.278E+00 0.327E+00
         4 0.118E+00 0.318E+00 0.542E+00 0.883E+00 0.121E+01 0.132E+01 0.229E+01


 Contracted 2-electron integrals neglected if value below      1.0D-14
 AO integral compression algorithm  1   Integral accuracy      1.0D-14

     4.456 MB (compressed) written to integral file (100.0%)


 NUMBER OF SORTED TWO-ELECTRON INTEGRALS:     396151.     BUFFER LENGTH:  32768
 NUMBER OF SEGMENTS:   1  SEGMENT LENGTH:     396151      RECORD LENGTH: 524288

 Memory used in sort:       0.95 MW

 SORT1 READ      562034. AND WROTE      366996. INTEGRALS IN      2 RECORDS. CPU TIME:     0.01 SEC, REAL TIME:     0.01 SEC
 SORT2 READ      366996. AND WROTE      396151. INTEGRALS IN     17 RECORDS. CPU TIME:     0.02 SEC, REAL TIME:     0.03 SEC

 FILE SIZES:   FILE 1:    23.6 MBYTE,  FILE 4:     8.4 MBYTE,   TOTAL:     32.0 MBYTE

 OPERATOR DM      FOR CENTER  0  COORDINATES:    0.000000    0.000000    0.000000

 PROGRAM * RHF-SCF (CLOSED SHELL)       Authors: W. Meyer, H.-J. Werner


 NUMBER OF ELECTRONS:       5+    5-
 CONVERGENCE THRESHOLDS:    1.00E-10 (Density)    1.00E-11 (Energy)
 MAX. NUMBER OF ITERATIONS:       60
 INTERPOLATION TYPE:            DIIS
 INTERPOLATION STEPS:              2 (START)      1 (STEP)
 LEVEL SHIFTS:                  0.00 (CLOSED)  0.00 (OPEN) 

 Number of closed-shell orbitals:    5 (   3   1   1   0 )


 Molecular orbitals read from record     2100.2  Type=RHF/CANONICAL (state 1.1)

 Molecular orbital dump at record        2100.2

 ITERATION    DDIFF          GRAD             ENERGY        2-EL.EN.            DIPOLE MOMENTS         DIIS   ORB.
    1      0.000D+00      0.000D+00       -76.05637176     75.549724    0.00000    0.00000    0.80198    0    start
    2      0.000D+00      0.155D-02       -76.05650548     75.668125    0.00000    0.00000    0.80514    1    diag
    3      0.340D-02      0.459D-03       -76.05651592     75.611175    0.00000    0.00000    0.80443    2    diag
    4      0.621D-03      0.191D-03       -76.05651838     75.632213    0.00000    0.00000    0.80667    3    diag
    5      0.191D-03      0.330D-04       -76.05651857     75.630722    0.00000    0.00000    0.80700    4    diag
    6      0.517D-04      0.939D-05       -76.05651859     75.630843    0.00000    0.00000    0.80724    5    diag
    7      0.198D-04      0.174D-05       -76.05651860     75.630844    0.00000    0.00000    0.80726    6    diag
    8      0.418D-05      0.214D-06       -76.05651860     75.630842    0.00000    0.00000    0.80726    7    orth
    9      0.454D-06      0.281D-07       -76.05651860     75.630842    0.00000    0.00000    0.80726    8    diag
   10      0.683D-07      0.508D-08       -76.05651860     75.630842    0.00000    0.00000    0.80726    9    diag
   11      0.113D-07      0.628D-09       -76.05651860     75.630842    0.00000    0.00000    0.80726    9    diag
   12      0.143D-08      0.102D-09       -76.05651860     75.630842    0.00000    0.00000    0.80726    9    diag
   13      0.285D-09      0.119D-10       -76.05651860     75.630842    0.00000    0.00000    0.80726    9    diag
   14      0.226D-10      0.224D-11       -76.05651860     75.630842    0.00000    0.00000    0.80726    0    orth

 Final occupancy:   3   1   1   0

 !RHF STATE 1.1 Energy                -76.056518595231
 Nuclear energy                         9.13231654
 One-electron energy                 -123.00425628
 Two-electron energy                   37.81542115
 Virial quotient                       -1.00099229
 !RHF STATE 1.1 Dipole moment           0.00000000     0.00000000     0.80726021
 Dipole moment /Debye                   0.00000000     0.00000000     2.05171641

 Orbital energies:

         1.1          2.1          3.1          4.1          5.1
    -20.556619    -1.343149    -0.579080     0.141296     0.603015

         1.2          2.2          3.2
     -0.504372     0.787085     0.948876

         1.3          2.3          3.3
     -0.703487     0.203694     0.539128

         1.4          2.4
      0.862547     2.060412

 HOMO      1.2    -0.504372 =     -13.7247eV
 LUMO      4.1     0.141296 =       3.8449eV
 LUMO-HOMO         0.645668 =      17.5695eV


 **********************************************************************************************************************************
 DATASETS  * FILE   NREC   LENGTH (MB)   RECORD NAMES
              1      19       22.15       500      610      700      900      950      970     1000      129      960     1100   
                                          VAR    BASINP    GEOM    SYMINP    ZMAT    AOBASIS   BASIS     P2S    ABASIS      S 
                                         1400     1410     1200     1210     1080     1600     1650     1300     1700   
                                           T        V       H0       H01     AOSYM     SMH    MOLCAS    ERIS     OPER   

              2       5        2.81       700     1000      520     2100     5600   
                                         GEOM     BASIS   MCVARS     RHF     GINFO   

 PROGRAMS   *        TOTAL       RHF   CCSD(T)       RHF       INT
 CPU TIMES  *         3.99      0.57      0.16      0.05      0.24
 REAL TIME  *         5.73 SEC
 DISK USED  *        34.90 MB      
 **********************************************************************************************************************************


 PROGRAM * CCSD (Closed-shell coupled cluster)     Authors: C. Hampel, H.-J. Werner, 1991, M. Deegan, P.J. Knowles, 1992


 Convergence thresholds:  THRVAR = 1.00D-14  THRDEN = 1.00D-10

 CCSD(T)     terms to be evaluated (factor= 1.000)


 Number of core orbitals:           1 (   1   0   0   0 )
 Number of closed-shell orbitals:   4 (   2   1   1   0 )
 Number of external orbitals:      53 (  20  10  16   7 )

 Molecular orbitals read from record     2100.2  Type=RHF/CANONICAL (state 1.1)

 Number of N-1 electron functions:               4
 Number of N-2 electron functions:              10
 Number of singly external CSFs:                66
 Number of doubly external CSFs:              5929
 Total number of CSFs:                        5996

 Length of J-op  integral file:               0.00 MB
 Length of K-op  integral file:               0.10 MB
 Length of 3-ext integral record:             0.00 MB

 Memory could be reduced to 0.56 Mwords without degradation in triples

 Integral transformation finished. Total CPU:   0.01 sec, npass=  1  Memory used:   0.12 MW

 Reference energy:                    -76.05651860

 MP2 singlet pair energy:              -0.16662221
[...]
 !CCSD(T) total energy                -76.332193519499

 Timing summary (sec):

 STEP                 CPU(USER)    SYS     CPU(TOT)    WALL
 Transformation          0.03      0.00      0.03      0.04
 CCSD iterations         0.39      0.04      0.43      0.42
 Triples                 0.11      0.00      0.11      0.11

 Program statistics:

 Available memory in ccsd:               999998686
 Min. memory needed in ccsd:                111654
 Max. memory used in ccsd:                  126268
 Max. memory used in cckext:                118262 (13 integral passes)



 **********************************************************************************************************************************
 DATASETS  * FILE   NREC   LENGTH (MB)   RECORD NAMES
              1      22       30.83       500      610      700      702      900      950      970     1001      129      960   
                                          VAR    BASINP    GEOM     GEOM    SYMINP    ZMAT    AOBASIS   BASIS     P2S    ABASIS    
                                         1100     1400     1410     1200     1210     1080     1600     1650     1300     1700   
                                           S        T        V       H0       H01     AOSYM     SMH    MOLCAS    ERIS     OPER   
                                         2100     1380   
                                          RHF     JKOP   

              2       9        3.27       700     1000      520     2100     5600      701     5500      702     1001   
                                         GEOM     BASIS   MCVARS     RHF     GINFO    GEOM     HINFO    GEOM     BASIS   

 PROGRAMS   *        TOTAL   CCSD(T)      OPTG   CCSD(T)       RHF       INT
 CPU TIMES  *        47.50      0.55     13.54      0.16      0.05      0.24
 REAL TIME  *        52.98 SEC
 DISK USED  *        52.40 MB      
 **********************************************************************************************************************************

 Numerical CCSD(T) hessian completed. CPU-time:    35.91 sec, Elapsed:    35.93 sec

 CCSD(T) hessian saved to record  5300.2

 PROGRAM * FREQUENCIES (Calculation of harmonuc vibrational spectra for CCSD(T))


 Permanent Dipole Moment [debye]
   1-  3    0.000000    0.000000    0.000000

 Dipole Moment Norm    0.0000000 [debye]

 Dipole Moment Derivatives [debye/ang]
                   1             2             3             4             5             6             7             8
         1     0.0000000     0.0000000     0.0000000     0.0000000     0.0000000     0.0000000     0.0000000     0.0000000
         2     0.0000000     0.0000000     0.0000000     0.0000000     0.0000000     0.0000000     0.0000000     0.0000000
         3     0.0000000     0.0000000     0.0000000     0.0000000     0.0000000     0.0000000     0.0000000     0.0000000
                   9
         1     0.0000000
         2     0.0000000
         3     0.0000000

 Projecting out rotations and translations

   Low Vibration      Wavenumber
        Nr             [1/cm] 
        1                0.00
        2                0.00
        3                0.00
        4                0.00
        5                0.00
        6                0.00

     Vibration        Wavenumber
        Nr             [1/cm] 
        1             1668.05
        2             3840.55
        3             3945.13

 FREQUENCIES * CALCULATION OF NORMAL MODES FOR CCSD(T)


 Atomic Coordinates

  Nr  Atom  Charge       X              Y              Z

   1   O     8.00    0.000000000    0.000000000   -0.125488574
   2   H     1.00    0.000000000    1.424685325    0.995962997
   3   H     1.00    0.000000000   -1.424685325    0.995962997

 Frequencies dumped to record   5400.2

 Gradient norm at reference geometry: 0.41395D-04

 Normal Modes

                              1 A1        2 A1        3 B2 
 Wavenumbers [cm-1]         1668.05     3840.55     3945.13
 Intensities [km/mol]          0.00        0.00        0.00
 Intensities [relative]        0.00        0.00        0.00
           OX1              0.00000     0.00000     0.00000
           OY1             -0.00000    -0.00000    -0.06717
           OZ1             -0.06786    -0.04888     0.00000
           HX2              0.00000     0.00000    -0.00000
           HY2             -0.41169     0.57147     0.53308
           HZ2              0.53854     0.38797     0.41962
           HX3             -0.00000    -0.00000     0.00000
           HY3              0.41169    -0.57147     0.53308
           HZ3              0.53854     0.38797    -0.41962


 Normal Modes of low/zero frequencies

                                  1           2           3           4           5
 Wavenumbers [cm-1]            0.00        0.00        0.00        0.00        0.00
 Intensities [km/mol]          0.00        0.00        0.00        0.00        0.00
 Intensities [relative]        0.00        0.00        0.00        0.00        0.00
           OX1              0.00000     0.16762     0.18548     0.00000     0.00000
           OY1              0.21883     0.00000     0.00000    -0.06023     0.07710
           OZ1             -0.07048     0.00000     0.00000     0.03850     0.20492
           HX2             -0.01908    -0.52255     0.47223     0.01186     0.25961
           HY2              0.00883     0.00000     0.00000    -0.45286     0.07876
           HZ2              0.19630     0.00000     0.00000     0.53730     0.20281
           HX3              0.01908    -0.52255     0.47223    -0.01186    -0.25961
           HY3              0.00883     0.00000     0.00000    -0.45286     0.07876
           HZ3             -0.33726     0.00000     0.00000    -0.46031     0.20704

                                  6
 Wavenumbers [cm-1]            0.00
 Intensities [km/mol]          0.00
 Intensities [relative]        0.00
           OX1              0.00000
           OY1             -0.02312
           OZ1             -0.08406
           HX2              0.65434
           HY2             -0.02278
           HZ2             -0.08448
           HX3             -0.65434
           HY3             -0.02278
           HZ3             -0.08363


 Zero point energy:  0.02153720 [H]     4726.87 [1/CM]       56.55 [KJ/MOL]

 Recomputing wavefunction at initial geometry


 Recomputing integrals since geometry and symmetry changed


 Using spherical harmonics

 Library entry O      S cc-pVTZ              selected for orbital group  1
 Library entry O      P cc-pVTZ              selected for orbital group  1
 Library entry O      D cc-pVTZ              selected for orbital group  1
 Library entry O      F cc-pVTZ              selected for orbital group  1
 Library entry H      S cc-pVTZ              selected for orbital group  2
 Library entry H      P cc-pVTZ              selected for orbital group  2
 Library entry H      D cc-pVTZ              selected for orbital group  2


 PROGRAM * SEWARD (Integral evaluation for generally contracted gaussian basis sets)     Author: Roland Lindh, 1990

 Geometry written to block  1 of record 700

 Orientation using atomic masses  
 Molecule type: Asymmetric top,     Order of principal axis = 2
 Symmetry elements: X,Y
 Rotational constants:     284.5125689    801.5424364    441.0749012 GHz  (calculated with average atomic masses)

 Point group  C2v 



 ATOMIC COORDINATES

 NR  ATOM    CHARGE       X              Y              Z

   1  O       8.00    0.000000000    0.000000000   -0.125488574
   2  H       1.00    0.000000000    1.424685325    0.995962997
   3  H       1.00    0.000000000   -1.424685325    0.995962997

 Bond lengths in Bohr (Angstrom)

 1-2  1.813113868  1-3  1.813113868
     ( 0.959458540)     ( 0.959458540)

 Bond angles

  2-1-3  103.58337285

 NUCLEAR CHARGE:                   10
 NUMBER OF PRIMITIVE AOS:          81
 NUMBER OF SYMMETRY AOS:           74
 NUMBER OF CONTRACTIONS:           58   (  23A1  +  11B1  +  17B2  +   7A2  )
 NUMBER OF CORE ORBITALS:           1   (   1A1  +   0B1  +   0B2  +   0A2  )
 NUMBER OF VALENCE ORBITALS:        6   (   3A1  +   1B1  +   2B2  +   0A2  )

 SYMMETRY CHANGED: INITIALIZING OCCUPATION


 NUCLEAR REPULSION ENERGY    9.17555213

 Eigenvalues of metric

         1 0.259E-02 0.582E-02 0.109E-01 0.419E-01 0.841E-01 0.114E+00 0.167E+00 0.270E+00
         2 0.403E-01 0.109E+00 0.245E+00 0.448E+00 0.525E+00 0.703E+00 0.110E+01 0.134E+01
         3 0.475E-02 0.762E-02 0.480E-01 0.690E-01 0.923E-01 0.170E+00 0.278E+00 0.322E+00
         4 0.116E+00 0.317E+00 0.540E+00 0.880E+00 0.121E+01 0.132E+01 0.229E+01


 Contracted 2-electron integrals neglected if value below      1.0D-14
 AO integral compression algorithm  1   Integral accuracy      1.0D-14

     4.456 MB (compressed) written to integral file (100.0%)


 NUMBER OF SORTED TWO-ELECTRON INTEGRALS:     396151.     BUFFER LENGTH:  32768
 NUMBER OF SEGMENTS:   1  SEGMENT LENGTH:     396151      RECORD LENGTH: 524288

 Memory used in sort:       0.95 MW

 SORT1 READ      562034. AND WROTE      366996. INTEGRALS IN      2 RECORDS. CPU TIME:     0.00 SEC, REAL TIME:     0.02 SEC
 SORT2 READ      366996. AND WROTE      396151. INTEGRALS IN     17 RECORDS. CPU TIME:     0.03 SEC, REAL TIME:     0.02 SEC

 FILE SIZES:   FILE 1:    23.6 MBYTE,  FILE 4:     8.4 MBYTE,   TOTAL:     32.0 MBYTE

 OPERATOR DM      FOR CENTER  0  COORDINATES:    0.000000    0.000000    0.000000

 PROGRAM * RHF-SCF (CLOSED SHELL)       Authors: W. Meyer, H.-J. Werner


 NUMBER OF ELECTRONS:       5+    5-
 CONVERGENCE THRESHOLDS:    1.00E-10 (Density)    1.00E-11 (Energy)
 MAX. NUMBER OF ITERATIONS:       60
 INTERPOLATION TYPE:            DIIS
 INTERPOLATION STEPS:              2 (START)      1 (STEP)
 LEVEL SHIFTS:                  0.00 (CLOSED)  0.00 (OPEN) 



 Molecular orbitals read from record     2100.2  Type=RHF/CANONICAL (state 1.1)

 Molecular orbital dump at record        2100.2

 ITERATION    DDIFF          GRAD             ENERGY        2-EL.EN.            DIPOLE MOMENTS         DIIS   ORB.
    1      0.000D+00      0.000D+00       -76.05694390     75.699579    0.00000    0.00000    0.80322    0    start
    2      0.000D+00      0.123D-11       -76.05694390     75.699579    0.00000    0.00000    0.80322    0    orth

 Final occupancy:   3   1   1   0

 !RHF STATE 1.1 Energy                -76.056943904565
 Nuclear energy                         9.17555213
 One-electron energy                 -123.08228561
 Two-electron energy                   37.84978957
 Virial quotient                       -1.00076876
 !RHF STATE 1.1 Dipole moment           0.00000000     0.00000000     0.80321927
 Dipole moment /Debye                   0.00000000     0.00000000     2.04144602

 Orbital energies:

         1.1          2.1          3.1          4.1          5.1
    -20.555590    -1.345223    -0.579147     0.141861     0.604331

         1.2          2.2          3.2
     -0.504605     0.787211     0.951098

         1.3          2.3          3.3
     -0.706789     0.204043     0.541737

         1.4          2.4
      0.862639     2.063140

 HOMO      1.2    -0.504605 =     -13.7310eV
 LUMO      4.1     0.141861 =       3.8602eV
 LUMO-HOMO         0.646465 =      17.5912eV


 **********************************************************************************************************************************
 DATASETS  * FILE   NREC   LENGTH (MB)   RECORD NAMES
              1      19       22.15       500      610      700      900      950      970     1000      129      960     1100   
                                          VAR    BASINP    GEOM    SYMINP    ZMAT    AOBASIS   BASIS     P2S    ABASIS      S 
                                         1400     1410     1200     1210     1080     1600     1650     1300     1700   
                                           T        V       H0       H01     AOSYM     SMH    MOLCAS    ERIS     OPER   

              2       8        2.81       700     1000      520     2100     5600     5300     5400     5450   
                                         GEOM     BASIS   MCVARS     RHF     GINFO    HESS     FREQ     NMOD   

 PROGRAMS   *        TOTAL       RHF      OPTG   CCSD(T)       RHF       INT
 CPU TIMES  *        47.98      0.48     13.54      0.16      0.05      0.24
 REAL TIME  *        53.51 SEC
 DISK USED  *        52.40 MB      
 **********************************************************************************************************************************


 PROGRAM * CCSD (Closed-shell coupled cluster)     Authors: C. Hampel, H.-J. Werner, 1991, M. Deegan, P.J. Knowles, 1992


 Convergence thresholds:  THRVAR = 1.00D-14  THRDEN = 1.00D-10

 CCSD(T)     terms to be evaluated (factor= 1.000)


 Number of core orbitals:           1 (   1   0   0   0 )
 Number of closed-shell orbitals:   4 (   2   1   1   0 )
 Number of external orbitals:      53 (  20  10  16   7 )

 Molecular orbitals read from record     2100.2  Type=RHF/CANONICAL (state 1.1)

 Number of N-1 electron functions:               4
 Number of N-2 electron functions:              10
 Number of singly external CSFs:                66
 Number of doubly external CSFs:              5929
 Total number of CSFs:                        5996

 Length of J-op  integral file:               0.00 MB
 Length of K-op  integral file:               0.10 MB
 Length of 3-ext integral record:             0.00 MB

 Memory could be reduced to 0.56 Mwords without degradation in triples

 Integral transformation finished. Total CPU:   0.01 sec, npass=  1  Memory used:   0.12 MW

 Reference energy:                    -76.05694390

 MP2 singlet pair energy:              -0.16636859
 MP2 triplet pair energy:              -0.09534480
 MP2 correlation energy:               -0.26171339
 MP2 total energy:                    -76.31865729

 SCS-MP2 correlation energy:           -0.25896796   (PS=  1.200000  PT=  0.333333)
 SCS-MP2 total energy:                -76.31591186

 ITER.      SQ.NORM     CORR.ENERGY   TOTAL ENERGY   ENERGY CHANGE        DEN1      VAR(S)    VAR(P)  DIIS     TIME  TIME/IT
   1      1.06063346    -0.26711255   -76.32405645    -0.00539916    -0.00040508  0.45D-03  0.82D-03  1  1     0.02     0.01
   2      1.06377802    -0.26753142   -76.32447532    -0.00041887    -0.00448451  0.76D-05  0.87D-04  2  2     0.03     0.01
   3      1.06481043    -0.26759360   -76.32453751    -0.00006219    -0.00081608  0.15D-05  0.40D-05  3  3     0.03     0.01
   4      1.06507990    -0.26760377   -76.32454767    -0.00001016    -0.00016182  0.10D-06  0.20D-06  4  4     0.04     0.01
   5      1.06511609    -0.26760115   -76.32454505     0.00000262    -0.00001858  0.35D-07  0.11D-07  5  5     0.05     0.01
   6      1.06512210    -0.26760100   -76.32454491     0.00000014    -0.00000172  0.54D-08  0.12D-08  6  6     0.06     0.01
   7      1.06512373    -0.26760113   -76.32454503    -0.00000012    -0.00000031  0.82D-09  0.16D-09  6  1     0.06     0.01
   8      1.06512434    -0.26760114   -76.32454505    -0.00000001     0.00000042  0.29D-10  0.13D-10  6  2     0.07     0.01
   9      1.06512454    -0.26760113   -76.32454503     0.00000002    -0.00000008  0.12D-11  0.11D-11  6  3     0.08     0.01
  10      1.06512458    -0.26760112   -76.32454503     0.00000000     0.00000002  0.41D-13  0.57D-13  6  4     0.09     0.01
  11      1.06512458    -0.26760112   -76.32454503     0.00000000    -0.00000001  0.18D-14  0.42D-14  6  5     0.09     0.01
  12      1.06512458    -0.26760112   -76.32454503    -0.00000000     0.00000000  0.16D-15  0.29D-15  6  6     0.10     0.01
  13      1.06512458    -0.26760112   -76.32454503    -0.00000000     0.00000000  0.28D-16  0.23D-16  6  1     0.11     0.01

 Norm of t1 vector:      0.02624536      S-energy:     0.00000000      T1 diagnostic:  0.00656134
                                                                       D1 diagnostic:  0.01083428

 Total CPU time for triples:      0.02 sec


 RESULTS
 =======

  Reference energy                    -76.056943904565
  CCSD singlet pair energy             -0.182590259685
  CCSD triplet pair energy             -0.085010861535
  CCSD correlation energy              -0.267601121146

  Triples (T) contribution             -0.007671491061
  Total correlation energy             -0.275272612207

  CCSD total energy                   -76.324545025711
  CCSD[T] energy                      -76.332410242444
  CCSD-T energy                       -76.332079405815
 !CCSD(T) total energy                -76.332216516772

 Timing summary (sec):

 STEP                 CPU(USER)    SYS     CPU(TOT)    WALL
 Transformation          0.01      0.00      0.01      0.01
 CCSD iterations         0.10      0.02      0.12      0.11
 Triples                 0.02      0.00      0.02      0.02

 Program statistics:

 Available memory in ccsd:               999999836
 Min. memory needed in ccsd:                 31875
 Max. memory used in ccsd:                   36141
 Max. memory used in cckext:                 65678 (13 integral passes)



 **********************************************************************************************************************************
 DATASETS  * FILE   NREC   LENGTH (MB)   RECORD NAMES
              1      20       22.92       500      610      700      900      950      970     1000      129      960     1100   
                                          VAR    BASINP    GEOM    SYMINP    ZMAT    AOBASIS   BASIS     P2S    ABASIS      S 
                                         1400     1410     1200     1210     1080     1600     1650     1300     1700     1380   
                                           T        V       H0       H01     AOSYM     SMH    MOLCAS    ERIS     OPER     JKOP   

              2       8        2.81       700     1000      520     2100     5600     5300     5400     5450   
                                         GEOM     BASIS   MCVARS     RHF     GINFO    HESS     FREQ     NMOD   

 PROGRAMS   *        TOTAL   CCSD(T)      OPTG   CCSD(T)       RHF       INT
 CPU TIMES  *        48.13      0.15     13.54      0.16      0.05      0.24
 REAL TIME  *        53.68 SEC
 DISK USED  *        52.40 MB      
 **********************************************************************************************************************************


 **********************************************************************************************************************************
 DATASETS  * FILE   NREC   LENGTH (MB)   RECORD NAMES
              1      20       22.92       500      610      700      900      950      970     1000      129      960     1100   
                                          VAR    BASINP    GEOM    SYMINP    ZMAT    AOBASIS   BASIS     P2S    ABASIS      S 
                                         1400     1410     1200     1210     1080     1600     1650     1300     1700     1380   
                                           T        V       H0       H01     AOSYM     SMH    MOLCAS    ERIS     OPER     JKOP   

              2       8        2.81       700     1000      520     2100     5600     5300     5400     5450   
                                         GEOM     BASIS   MCVARS     RHF     GINFO    HESS     FREQ     NMOD   

 PROGRAMS   *        TOTAL      FREQ      OPTG   CCSD(T)       RHF       INT
 CPU TIMES  *        48.13     34.03     13.54      0.16      0.05      0.24
 REAL TIME  *        53.68 SEC
 DISK USED  *        52.40 MB      
 **********************************************************************************************************************************

 CCSD(T)/cc-pVTZ energy=    -76.332216516772

   OPTG(CCSD(T))        CCSD(T)         RHF-SCF 
    -76.33221652    -76.33137938    -76.05465861
 **********************************************************************************************************************************
 Molpro calculation terminated
 Variable memory released
