 --invoking executable--
/lcrc/project/PACC/brossdh/cfour_blues/bin/xinitenv
--executable xinitenv finished with status     0 in        0.08 seconds (walltime).
 --invoking executable--
/lcrc/project/PACC/brossdh/cfour_blues/bin/xjoda


   *************************************************************************
         <<<     CCCCCC     CCCCCC   |||     CCCCCC     CCCCCC   >>>
       <<<      CCC        CCC       |||    CCC        CCC         >>>
      <<<      CCC        CCC        |||   CCC        CCC            >>>
    <<<        CCC        CCC        |||   CCC        CCC              >>>
      <<<      CCC        CCC        |||   CCC        CCC            >>>
       <<<      CCC        CCC       |||    CCC        CCC         >>>
         <<<     CCCCCC     CCCCCC   |||     CCCCCC     CCCCCC   >>>
   *************************************************************************

     ****************************************************************
     * CFOUR Coupled-Cluster techniques for Computational Chemistry *
     ****************************************************************
 

   Department of Chemistry                Institut fuer Physikalische Chemie
   University of Texas at Austin          Universitaet Mainz
   Austin, TX  78712, USA                 D-55099 Mainz, Germany
 
                       Version 2.00beta
 
                     b440                                              
                     Tue Jan  8 14:33:06 CST 2019                      
                     integer*8 version is running
 
********************************************************************************
*                          Input from ZMAT file                                *
********************************************************************************
SP Test                                                                         
O                                                                               
H 1 r1*                                                                         
H 1 r1* 2 a1*                                                                   
                                                                                
r1 = 0.95                                                                       
a1 = 104.5                                                                      
                                                                                
*CFOUR(CALC=CCSD[T]                                                             
CC_PROG=ECC,ABCDTYPE=AOBASIS                                                    
REFERENCE=RHF                                                                   
BASIS=PVTZ                                                                      
MEMORY_SIZE=30,MEM_UNIT=GB                                                      
CHARGE=0,MULTIPLICITY=1)                                                        
                                                                                
********************************************************************************
 
     PARALLEL RUN STARTED ON            4  CORES/NODES.
 
    -------------------------------------------------------------------
                    CFOUR Control Parameters 
    -------------------------------------------------------------------
        External           Internal           Value            Units
          Name               Name
    -------------------------------------------------------------------
       ABCDTYPE             IABCDT         AOBASIS      [  2]   ***   
       ANHARMONIC           IANHAR         OFF          [  0]   ***   
       ANH_ALGORIT          IANALG         STANDARD     [  0]   ***   
       ANH_DERIVAT          IANDER         SECOND       [  1]   ***   
       ANH_STEPSIZ          ICUBST             50000          x 10-6  
       ANH_SYMMETR          IANHSM         ABELIAN      [  0]   ***   
       AO_LADDERS           IAOLAD         SINGLEPASS   [  1]   ***   
       BASIS                IBASIS         PVTZ         [ 14]   ***   
       BREIT                IBREIT         OFF          [  0]   ***   
       BRUCK_CONV           IBRTOL          10D-  4             ***   
       BRUECKNER            IBRKNR             OFF      [  0]   ***   
       BUFFERSIZE           IBUFFS            600               ***   
       CACHE_RECS           ICHREC             10               ***   
       CALCLEVEL            ICLLVL           CCSD(T)    [ 22]   ***   
       CCORBOPT             ICCORB             OFF      [  0] x 0.01  
       CC_CONV              ICCCNV          10D-  7             ***   
       CC_EXPORDER          ICCEOR              5               ***   
       CC_EXTRAPOL          ICCEXT             DIIS     [  1]   ***   
       CC_MAXCYC            ICCCYC             50              cycles 
       CC_PROGRAM           ICCPRO         ECC          [  1]   ***   
       CHARGE               ICHRGE              0               ***   
       CHOLESKY             ICHOLE         OFF          [  0]   ***   
       CIS_CONV             ICISTL              5               ***   
       COMM_SIZE            IPSIZE            ***               ***   
       CONSTANT             ICONST         OLD          [  1]   ***   
       CONTINUUM            ICONTU         NONE         [  0]   ***   
       CONTRACTION          ICNTYP          GENERAL     [  1]   ***   
       COORDINATES          ICOORD         INTERNAL     [  0]   ***   
       CPHF_CONVER          ICPHFT          10D- 16             ***   
       CPHF_MAXCYC          ICPHFC             64              cycles 
       CUBIC                ICUBIC         OFF          [  0]   ***   
       CURVILINEAR          ICURVY            OFF       [  0]   ***   
       DBOC                 IDBOC          OFF          [  0]   ***   
       DCT                  IDCT           OFF          [  0]   ***   
       DERIV_LEV            IDRLVL            FIRST     [  1]   ***   
       DIAG_MRCC            IEOMST          10D-  0             ***   
       DIFF_TYPE            IDIFTY         RELAXED      [  0]   ***   
       DIRECT               IDIRCT         OFF          [  0]   ***   
       DROPMO               IDRPMO      NONE         
       ECP                  IECP           OFF          [  0]   ***   
       EIGENVECTOR          IVEC                1               ***   
       EL_ANHARM            IELANH         OFF          [  0]   ***   
       EOMFOLLOW            IEOMSR         ENERGY       [  0]   ***   
       EOM_MRCC             IMRCCE         NEW          [  1]   ***   
       EOM_NONIT            EOMNON         OFF          [  0]   ***   
       EOM_NSING            IEOMSI          10D-  0             ***   
       EOM_NSTATES          IMRCCD         DAVIDSON     [  0]   ***   
       EOM_NTRIP            IEOMTR          10D-  0             ***   
       EOM_ORDER            IEXORD         ENERGY       [  0]   ***   
       ESTATE_CONV          IEXTOL          10D-  5             ***   
       ESTATE_DIAG          IEXDIG         ITERATIVE    [  0]   ***   
       ESTATE_LOCK          IESLOC         ON           [  1]   ***   
       ESTATE_MAXC          IEXMXC             20               ***   
       ESTATE_PROP          IEXPRP         OFF          [  0]   ***   
       EVAL_HESS            IRECAL              0            # of cyc.
       EXCITATION           IEXCIT              0               ***   
       EXCITE               IEXCIT         NONE         [  0]   ***   
       FCGRADNEW            IFCGNW         OFF          [  0]   ***   
       FC_FIELD             IFINFC              0             x 10-6  
       FD_CALTYPE           IFDCAL         GRADONLY     [  0]   ***   
       FD_PROJECT           IFDPRJ         OFF          [  1]   ***   
       FD_STEPSIZE          IDISFD              0            10-4 bohr
       FD_USEGROUP          IFDGRP         FULL         [  0]   ***   
       FILE_RECSIZ          IFLREC              4096           words  
       FINITE_PERT          IFIPER              0             x 10-6  
       FIXGEOM              IFIXGM         OFF          [  0]   ***   
       FOCK                 IFOCK          AO           [  1]   ***   
       FREQ_ALGORI          IVIALG         STANDARD     [  0]   ***   
       FROZEN_CORE          IFROCO         OFF          [  0]   ***   
       FROZEN_VIRT          IFROVI         OFF          [  0]   ***   
       GAMMA_ABCD           IGABCD         DIRECT       [  1]   ***   
       GAMMA_ABCI           IGABCI         STORE        [  0]   ***   
       GENBAS_1             IGNBS1              0               ***   
       GENBAS_2             IGNBS2              0               ***   
       GENBAS_3             IGNBS3              0               ***   
       GENBAS_4             IGNBS4              0               ***   
       GEO_CONV             ICONTL              5              H/bohr 
       GEO_MAXCYC           IOPTCY             50               ***   
       GEO_MAXSTEP          IMXSTP            300            millibohr
       GEO_METHOD           INR                NR       [  0]   ***   
       GIAO                 IGIAO          OFF          [  1]   ***   
       GIMIC                IGIMIC         OFF          [  0]   ***   
       GRID                 IGRID          OFF          [  0]   ***   
       GRID_ALGO            IGALGO         SERIAL       [  0]   ***   
       GUESS                IGUESS            MOREAD    [  0]   ***   
       HBAR                 IHBAR              OFF      [  0]   ***   
       HESS_TYPE            IHESTP         SCF          [  0]   ***   
       HF2_FILE             IHF2Fl         USE          [  1]   ***   
       HFSTABILITY          ISTABL         OFF          [  0]   ***   
       INCORE               INCORE             OFF      [  0]   ***   
       INPUT_MRCC           IMRCC          ON           [  1]   ***   
       INTEGRALS            INTTYP             VMOL     [  1]   ***   
       JODA_PRINT           IJPRNT              0               ***   
       LINDEP_TOL           ILINDP              8               ***   
       LINEQ_CONV           IZTACN          10D-  7           cycles  
       LINEQ_EXPOR          ILMAXD              5               ***   
       LINEQ_MAXCY          ILMAXC             50               ***   
       LINEQ_TYPE           ILTYPE         DIIS         [  1]   ***   
       LOCK_ORBOCC          ILOCOC             OFF      [  0]   ***   
       MEMORY_SIZE          IMEMSZ         *********           words  
       MEM_UNIT             IMEMU          GB           [  3]   ***   
       MRCC                 IMRCCC         OFF          [  0]   ***   
       MULTIPLICTY          IMULTP              1               ***   
       NEGEVAL              IDIE             ABORT      [  0]   ***   
       NEWNORM              INEWNO         OFF          [  0]   ***   
       NON-HF               INONHF             OFF      [  0]   ***   
       NTOP_TAMP            ITOPT2             15               ***   
       NUC_MODEL            INUCMO         POINT        [  0]   ***   
       OCCUPATION           IOCCU   ESTIMATED BY SCF 
       OPEN-SHELL           IOPEN          SPIN-ORBITAL [  0]   ***   
       ORBITALS             IORBTP           STANDARD   [  0]   ***   
       PARALLEL             IPARAL         ON           [  1]   ***   
       PARA_INT             IPINTS         ON           [  1]   ***   
       PARA_PRINT           IPPRIN              0               ***   
       PERT_ORB             IPTORB         CANONICAL    [  1]   ***   
       POINTS               IGRDFD              0               ***   
       PRINT                IPRNT               0               ***   
       PROPS                IPROPS             OFF      [  0]   ***   
       PROP_INTEGR          IINTYP         INTERNAL     [  0]   ***   
       PSI                  IPSI           OFF          [  0]   ***   
       QUARTIC              IQUART         OFF          [  0]   ***   
       RAMAN_INT            IRAMIN         OFF          [  0]   ***   
       RAMAN_ORB            IRAMRE         UNRELAXED    [  0]   ***   
       RDO                  IRDOFM              ON      [  1]   ***   
       REFERENCE            IREFNC             RHF      [  0]   ***   
       RELATIVIST           IRELAT         OFF          [  0]   ***   
       RELAX_DENS           IRDENS              ON      [  1]   ***   
       RESET_FLAGS          IRESET             OFF      [  0]   ***   
       RESTART_CC           ICCRES         OFF          [  0]   ***   
       ROT_EVEC             ROTVEC              0               ***   
       SAVE_INTS            ISVINT             OFF      [  0]   ***   
       SCALE_ON             ISTCRT              0               ***   
       SCF_CONV             ISCFCV          10D-  7             ***   
       SCF_DAMPING          IDAMP               0             x 10-3  
       SCF_EXPORDE          IRPPOR              6               ***   
       SCF_EXPSTAR          IRPPLS              8               ***   
       SCF_EXTRAPO          IRPP                ON      [  1]   ***   
       SCF_MAXCYC           ISCFCY            150              cycles 
       SCF_NOSTOP           ISCFST         OFF          [  0]   ***   
       SCF_PRINT            ISCFPR              0               ***   
       SD_FIELD             IFINSD              0             x 10-6  
       SEQUENCE             ISEQUE         OFF          [  0]   ***   
       SOPERT               IPERSO         OFF          [  0]   ***   
       SPHERICAL            IDFGHI             ON       [  1]   ***   
       SPINORBIT            ISOCAL         OFF          [  0]   ***   
       SPINROTATIO          ISRCON         OFF          [  0]   ***   
       SPIN_FLIP            ISPFLP         OFF          [  0]   ***   
       SPIN_ORBIT           ISPORB         OFF          [  0]   ***   
       SPIN_SCAL            ISCSMP         OFF          [  0]   ***   
       SUBGROUP             ISUBGP         DEFAULT      [  0]   ***   
       SUBGRPAXIS           ISBXYZ         X            [  0]   ***   
       SYMMETRY             ISYM             ON         [  0]   ***   
       SYM_CHECK            ISYMCK         OVERRIDE     [  1]   ***   
       T3_EXTRAPOL          IT3EXT         OFF          [  0]   ***   
       TAMP_SUM             IEVERY              5               ***   
       TESTSUITE            ITESTS         OFF          [  0]   ***   
       THERMOCH             ITHERM         OFF          [  0]   ***   
       TOL_CHOLESK          ITOLCH          10D-  4             ***   
       TRANGRAD             IRESRM         OFF          [  0]   ***   
       TRANS_INV            ITRAIN         USE          [  0]   ***   
       TREAT_PERT           ITREAT         SIMULTANEOUS [  0]   ***   
       UIJ_THRESHO          IUIJTH              1               ***   
       UNITS                IUNITS         ANGSTROM     [  0]   ***   
       UNOS                 IUNOS          OFF          [  0]   ***   
       UPDATE_HESS          IHUPDT         ON           [  1]   ***   
       VIBPHASE             ISETPH         STANDARD     [  0]   ***   
       VIBRATION            IVIB              NO        [  0]   ***   
       VIB_ALGORIT          IGEALG         STANDARD     [  0]   ***   
       VNATORB              IVNORB         OFF          [  0]   ***   
       VTRAN                IVTRAN         PARTIAL      [  2]   ***   
       XFIELD               IXEFLD              0             x 10-6  
       XFORM_TOL            IXFTOL          10D- 11             ***   
       YFIELD               IYEFLD              0             x 10-6  
       ZFIELD               IZEFLD              0             x 10-6  
    -------------------------------------------------------------------
   3 entries found in Z-matrix 
   Job Title : SP Test                                                                         
   There are  2 unique internal coordinates.
   Of these,  2 will be optimized.
   User supplied Z-matrix: 
--------------------------------------------------------------------------------
       SYMBOL    BOND      LENGTH    ANGLE     ANGLE     DIHED     ANGLE
                  TO      (ANGST)    WRT      (DEG)      WRT      (DEG)
--------------------------------------------------------------------------------
        O    
        H          1         r1   
        H          1         r1         2        a1   
                  *Initial values for internal coordinates* 
                      Name             Value
                        r1              0.9500000000
                        a1            104.5000000000
--------------------------------------------------------------------------------
  1  O          8    15.99491
  2  H          1     1.00783
  3  H          1     1.00783
 factor:   60.1997200000000     
   Rotational constants (in cm-1): 
          9.6726302583            14.8225246896            27.8399494844
   Rotational constants (in MHz): 
     289978.2006709864        444368.1732995223        834620.8055809441
********************************************************************************
   The full molecular point group is C2v .
   The largest Abelian subgroup of the full molecular point group is C2v .
   The computational point group is C2v .
********************************************************************************
 factor:   60.1997200000000     
 factor:   60.1997200000000     
 factor:   60.1997200000000     
--------------------------------------------------------------------------------
   Analysis of internal coordinates specified by Z-matrix 
--------------------------------------------------------------------------------
   *The nuclear repulsion energy is    9.264698656699112 a.u.
   *There are   2 degrees of freedom within the tot. symm. molecular subspace.
   *Z-matrix requests optimization of   2 coordinates.
   *The optimization is unconstrained and your Z-matrix is great.
--------------------------------------------------------------------------------
 ----------------------------------------------------------------
 Z-matrix   Atomic            Coordinates (in bohr)
  Symbol    Number           X              Y              Z
 ----------------------------------------------------------------
     O         8         0.00000000     0.00000000     0.12300307
     H         1         0.00000000    -1.41947770    -0.97607400
     H         1         0.00000000     1.41947770    -0.97607400
 ----------------------------------------------------------------
   Interatomic distance matrix (Angstroms) 
 
                 O             H             H    
                [ 1]        [ 2]        [ 3]
  O    [ 1]     0.00000
  H    [ 2]     0.95000     0.00000
  H    [ 3]     0.95000     1.50231     0.00000
   Rotational constants (in cm-1): 
          9.6726302583            27.8399494844            14.8225246896
   Rotational constants (in MHz): 
     289978.2006709864        834620.8055809441        444368.1732995223
  There are   58 basis functions.
  @CHECKOUT-I, Total execution time (CPU/WALL):        0.10/       0.14 seconds.
--executable xjoda finished with status     0 in        0.18 seconds (walltime).
 --invoking executable--
/lcrc/project/PACC/brossdh/cfour_blues/bin/xvmol
 Parallel version of molecule started on node            0 :
********************************************************************************
                    Input from MOL file
********************************************************************************
INTGRL        1    0    1    0    0    0    0    0    0                         
         *** CFOUR Program System (Release V0.1) ***                            
SP Test                                                                         
    2    2 X  Y       0.10E-08              0    0                              
   9999.00      3.00                                                            
          8.00000000    1    4    1    1    1    1                              
O #1   0.000000000000000   0.000000000000000   0.123003071136340                
   10    4                                                                      
   15330.0000000000       5.080000000000000E-004 -1.150000000000000E-004        
  0.000000000000000E+000  0.000000000000000E+000                                
   2299.00000000000       3.929000000000000E-003 -8.950000000000000E-004        
  0.000000000000000E+000  0.000000000000000E+000                                
   522.400000000000       2.024300000000000E-002 -4.636000000000000E-003        
  0.000000000000000E+000  0.000000000000000E+000                                
   147.300000000000       7.918100000000000E-002 -1.872400000000000E-002        
  0.000000000000000E+000  0.000000000000000E+000                                
   47.5500000000000       0.230687000000000      -5.846300000000000E-002        
  0.000000000000000E+000  0.000000000000000E+000                                
   16.7600000000000       0.433118000000000      -0.136463000000000             
  0.000000000000000E+000  0.000000000000000E+000                                
   6.20700000000000       0.350260000000000      -0.175740000000000             
  0.000000000000000E+000  0.000000000000000E+000                                
   1.75200000000000       4.272800000000000E-002  0.160934000000000             
   1.00000000000000       0.000000000000000E+000                                
  0.688200000000000      -8.154000000000000E-003  0.603418000000000             
  0.000000000000000E+000  0.000000000000000E+000                                
  0.238400000000000       2.381000000000000E-003  0.378765000000000             
  0.000000000000000E+000   1.00000000000000                                     
    5    3                                                                      
   34.4600000000000       1.592800000000000E-002  0.000000000000000E+000        
  0.000000000000000E+000                                                        
   7.74900000000000       9.974000000000000E-002  0.000000000000000E+000        
  0.000000000000000E+000                                                        
   2.28000000000000       0.310492000000000       0.000000000000000E+000        
  0.000000000000000E+000                                                        
  0.715600000000000       0.491026000000000        1.00000000000000             
  0.000000000000000E+000                                                        
  0.214000000000000       0.336337000000000       0.000000000000000E+000        
   1.00000000000000                                                             
    2    2                                                                      
   2.31400000000000        1.00000000000000       0.000000000000000E+000        
  0.645000000000000       0.000000000000000E+000   1.00000000000000             
    1    1                                                                      
   1.42800000000000        1.00000000000000                                     
          1.00000000    1    3    1    1    1                                   
H #2   0.000000000000000  -1.419477704263188  -0.976073997831169                
    5    3                                                                      
   33.8700000000000       6.068000000000000E-003  0.000000000000000E+000        
  0.000000000000000E+000                                                        
   5.09500000000000       4.530800000000000E-002  0.000000000000000E+000        
  0.000000000000000E+000                                                        
   1.15900000000000       0.202822000000000       0.000000000000000E+000        
  0.000000000000000E+000                                                        
  0.325800000000000       0.503903000000000        1.00000000000000             
  0.000000000000000E+000                                                        
  0.102700000000000       0.383421000000000       0.000000000000000E+000        
   1.00000000000000                                                             
    2    2                                                                      
   1.40700000000000        1.00000000000000       0.000000000000000E+000        
  0.388000000000000       0.000000000000000E+000   1.00000000000000             
    1    1                                                                      
   1.05700000000000        1.00000000000000                                     
FINISH                                                                          
 
********************************************************************************
 One- and two-electron integrals over symmetry-adapted AOs are calculated.

  Spherical harmonics are used.
  
  Integrals less than  0.10E-13 are neglected.

  Nuclear repulsion energy :    9.2646986567 a.u.
  required memory for a1 array                5020257  words 
  required memory for a2 array                2070308  words 
 @GETMEM-I,  Allocated      69 MB of main memory.
  @MOLECU-I, One electron integrals (CPU/WALL):        0.02/       0.02 seconds.
  @TWOEL-I,      11944 integrals of symmetry type  I I I I
  @TWOEL-I,      35554 integrals of symmetry type  I J I J
  @TWOEL-I,      19604 integrals of symmetry type  I I J J
  @TWOEL-I,      21942 integrals of symmetry type  I J K L
  @TWOEL-I, Total number of 2-e integrals      89044.
  @MOLECU-I, Two electron integrals (CPU/WALL):        0.25/       0.06 seconds.
  @CHECKOUT-I, Total execution time (CPU/WALL):        0.28/       0.09 seconds.
--executable xvmol finished with status     0 in        0.27 seconds (walltime).
 --invoking executable--
/lcrc/project/PACC/brossdh/cfour_blues/bin/xvmol2ja
 @GETMEM-I,  Allocated   28610 MB of main memory.
  @CHECKOUT-I, Total execution time (CPU/WALL):        0.01/       0.01 seconds.
--executable xvmol2ja finished with status     0 in        0.25 seconds (walltime).
 --invoking executable--
/lcrc/project/PACC/brossdh/cfour_blues/bin/xvscf
  There are   58 functions in the AO basis.

  There are 4 irreducible representations.

       Irrep        # of functions
         1                 23
         2                 11
         3                 17
         4                  7


  Parameters for SCF calculation: 
        SCF reference function:  RHF  
  Maximum number of iterations:  150
     Full symmetry point group: C2v 
     Computational point group: C2v 
        Initial density matrix: MOREAD                 
     SCF convergence tolerance: 10**(- 7)
  DIIS convergence acceleration:  ON
          Latest start for DIIS:   8
                     DIIS order:   6

  Memory information:     179852 words required.
  Fock matrices are constructed from AO integral file.
 @GETMEM-I,  Allocated       1 MB of main memory.
  Initialization and symmetry analysis required      0.003 seconds.

  @INITGES-I, Occupancies from core Hamiltonian:

          Alpha population by irrep:   3    1    1    0
           Beta population by irrep:   3    1    1    0


 total no. of electrons in initial guess :  0.000000000000000E+000
  --------------------------------------------------------------------
  Iteration         Total Energy            Largest Density Difference
  --------------------------------------------------------------------
       0             9.264698656699112              0.0000000000D+00
   current occupation vector 
     3  1  1  0
     3  1  1  0
       1           -61.425926657435312              0.1203873891D+02
   current occupation vector 
     3  1  1  0
     3  1  1  0
       2           -66.759116282329458              0.1198275900D+02
   current occupation vector 
     3  0  2  0
     3  0  2  0
       3           -71.804279648056919              0.1073251706D+02
   current occupation vector 
     3  1  1  0
     3  1  1  0
       4           -70.246099459365396              0.8700236790D+01
   current occupation vector 
     3  0  2  0
     3  0  2  0
       5           -73.142656907984176              0.8674746808D+01
   current occupation vector 
     3  1  1  0
     3  1  1  0
       6           -72.953175055259877              0.6710366180D+01
   current occupation vector 
     4  0  1  0
     4  0  1  0
       7           -74.353529130087281              0.6777870010D+01
   current occupation vector 
     3  1  1  0
     3  1  1  0
       8           -75.175522153430521              0.3046867173D+01
   current occupation vector 
     3  1  1  0
     3  1  1  0
       9           -76.043563522011496              0.1014599483D+01
   current occupation vector 
     3  1  1  0
     3  1  1  0
      10           -76.057358802657532              0.1354543064D+00
   current occupation vector 
     3  1  1  0
     3  1  1  0
      11           -76.057537750801274              0.1150393651D-01
   current occupation vector 
     3  1  1  0
     3  1  1  0
      12           -76.057544325161658              0.4565573898D-02
   current occupation vector 
     3  1  1  0
     3  1  1  0
      13           -76.057544786628583              0.1164905528D-02
   current occupation vector 
     3  1  1  0
     3  1  1  0
      14           -76.057544809364927              0.2521046349D-03
   current occupation vector 
     3  1  1  0
     3  1  1  0
      15           -76.057544809600770              0.2051694687D-04
   current occupation vector 
     3  1  1  0
     3  1  1  0
      16           -76.057544809605432              0.5234008173D-05
   current occupation vector 
     3  1  1  0
     3  1  1  0
      17           -76.057544809605673              0.1584858185D-05
   current occupation vector 
     3  1  1  0
     3  1  1  0
      18           -76.057544809605602              0.2101241805D-06
   current occupation vector 
     3  1  1  0
     3  1  1  0

  SCF has converged.

 Density matrix saved to file den.dat
 total electron number:   10.0000000000000     
     E(SCF)=       -76.057544809605787              0.3163637330D-07

  Eigenvector printing suppressed.

 @PUTMOS-I, Writing converged MOs to NEWMOS. 
 @PUTMOS-I, Symmetry   1 Full Blocks  5 Partial Blocksize   3
 @PUTMOS-I, Symmetry   2 Full Blocks  2 Partial Blocksize   3
 @PUTMOS-I, Symmetry   3 Full Blocks  4 Partial Blocksize   1
 @PUTMOS-I, Symmetry   4 Full Blocks  1 Partial Blocksize   3


 
  ORBITAL EIGENVALUES (ALPHA)  (1H = 27.2113838 eV)

       MO #        E(hartree)               E(eV)           FULLSYM    COMPSYM
       ----   --------------------   --------------------   -------   ---------
    1     1         -20.5534486790        -559.2877808206      A1        A1 (1)
    2     2          -1.3494568451         -36.7205881599      A1        A1 (1)
    3    35          -0.7137511735         -19.4221571340      B2        B2 (3)
    4     3          -0.5791159483         -15.7585463445      A1        A1 (1)
    5    24          -0.5050764998         -13.7438304936      B1        B1 (2)
  +++++++++++++++++++++++++++++++++++++++++++++++++++++++++++++++++++++++++++++
    6     4           0.1430049107           3.8913615142      A1        A1 (1)
    7    36           0.2046953180           5.5700428646      B2        B2 (3)
    8    37           0.5471794629          14.8895103826      B2        B2 (3)
    9     5           0.6065923923          16.5062184079      A1        A1 (1)
   10     6           0.6669542993          18.1487494279      A1        A1 (1)
   11    25           0.7873450011          21.4247470237      B1        B1 (2)
   12     7           0.8020152496          21.8239447857      A1        A1 (1)
   13    38           0.8054346885          21.9169924503      B2        B2 (3)
   14    52           0.8626650904          23.4743108814      A2        A2 (4)
   15    26           0.9561114781          26.0171164054      B1        B1 (2)
   16     8           1.1266212884          30.6569242971      A1        A1 (1)
   17    39           1.2014079089          32.6919717330      B2        B2 (3)
   18    40           1.5335647271          41.7304184004      B2        B2 (3)
   19     9           1.5776826712          42.9309287118      A1        A1 (1)
   20    27           2.0399868413          55.5108649245      B1        B1 (2)
   21    41           2.0421993368          55.5710699888      B2        B2 (3)
   22    53           2.0687804936          56.2943800498      A2        A2 (4)
   23    10           2.1732546875          59.1372674406      A1        A1 (1)
   24    11           2.2320395395          60.7368846085      A1        A1 (1)
   25    12           2.5943149064          70.5948986670      A1        A1 (1)
   26    42           2.9701425569          80.8216891144      B2        B2 (3)
   27    28           3.3556819392          91.3127492237      B1        B1 (2)
   28    13           3.4949945372          95.1036378001      A1        A1 (1)
   29    54           3.5873181111          97.6158900031      A2        A2 (4)
   30    43           3.6666469394          99.7745372002      B2        B2 (3)
   31    29           3.8066650466         103.5846236562      B1        B1 (2)
   32    44           3.8872303113         105.7769159959      B2        B2 (3)
   33    14           3.8872781549         105.7782178863      A1        A1 (1)
   34    55           3.9669054580         107.9449869925      A2        A2 (4)
   35    30           4.0205261975         109.4040815170      B1        B1 (2)
   36    45           4.0792650629         111.0024473287      B2        B2 (3)
   37    15           4.2019380753         114.3405497533      A1        A1 (1)
   38    56           4.3253374455         117.6984173795      A2        A2 (4)
   39    16           4.3986432617         119.6931700800      A1        A1 (1)
   40    46           4.6032040597         125.2595524679      B2        B2 (3)
   41    31           4.6915902871         127.6646640251      B1        B1 (2)
   42    47           4.8826616899         132.8639813062      B2        B2 (3)
   43    17           5.1862544190         141.1251595826      A1        A1 (1)
   44    18           5.2575885684         143.0662605005      A1        A1 (1)
   45    48           5.5331228383         150.5639292729      B2        B2 (3)
   46    32           6.0666157038         165.0810084031      B1        B1 (2)
   47    19           6.5987079955         179.5599759783      A1        A1 (1)
   48    33           6.9461739532         189.0150055184      B1        B1 (2)
   49    57           6.9539597574         189.2268680249      A2        A2 (4)
   50    34           7.0082765721         190.7049037160      B1        B1 (2)
   51    20           7.0403799104         191.5784799774      A1        A1 (1)
   52    49           7.0888845057         192.8983571373      B2        B2 (3)
   53    21           7.1735773757         195.2029673304      A1        A1 (1)
   54    58           7.2547757482         197.4124874100      A2        A2 (4)
   55    22           7.4626070409         203.0678644847      A1        A1 (1)
   56    50           7.8143821291         212.6401514282      B2        B2 (3)
   57    51           8.3218821369         226.4499289280      B2        B2 (3)
   58    23          12.9986373590         353.7109103085      A1        A1 (1)


  VSCF finished.

  @CHECKOUT-I, Total execution time (CPU/WALL):        0.08/       0.06 seconds.
--executable xvscf finished with status     0 in        0.29 seconds (walltime).
 --invoking executable--
/lcrc/project/PACC/brossdh/cfour_blues/bin/xvtran
 @GETMEM-I,  Allocated   28610 MB of main memory.
  Partial RHF integral transformation
 ! shown number of AO integrals not right ! (in parallel version)
  Transformation of IIII integrals :
  1 pass through the AO integral file was required.
       11944 AO integrals were read.
       19207 MO integrals were written to HF2.
  Transformation of IIJJ integrals :
  1 pass through the AO integral file was required.
       19604 AO integrals were read.
       25584 MO integrals were written to HF2.
  Transformation of IJIJ integrals :
  1 pass through the AO integral file was required.
       35554 AO integrals were read.
       46506 MO integrals were written to HF2.
  Transformation of IJKL integrals :
  1 pass through the AO integral file was required.
       21942 AO integrals were read.
       23121 MO integrals were written to HF2.
  Summary of active molecular orbitals: 
------------------------------------------------------------------------
 
  Index      Eigenvalue    Symmetry    Index      Eigenvalue    Symmetry
------------------------------------------------------------------------
     1       -20.5534487        1        30         3.8066650        2
     2        -1.3494568        1        31         4.0205262        2
     3        -0.5791159        1        32         4.6915903        2
     4        -0.5050765        2        33         6.0666157        2
     5        -0.7137512        3        34         6.9461740        2
     6         0.1430049        1        35         7.0082766        2
     7         0.6065924        1        36         0.2046953        3
     8         0.6669543        1        37         0.5471795        3
     9         0.8020152        1        38         0.8054347        3
    10         1.1266213        1        39         1.2014079        3
    11         1.5776827        1        40         1.5335647        3
    12         2.1732547        1        41         2.0421993        3
    13         2.2320395        1        42         2.9701426        3
    14         2.5943149        1        43         3.6666469        3
    15         3.4949945        1        44         3.8872303        3
    16         3.8872782        1        45         4.0792651        3
    17         4.2019381        1        46         4.6032041        3
    18         4.3986433        1        47         4.8826617        3
    19         5.1862544        1        48         5.5331228        3
    20         5.2575886        1        49         7.0888845        3
    21         6.5987080        1        50         7.8143821        3
    22         7.0403799        1        51         8.3218821        3
    23         7.1735774        1        52         0.8626651        4
    24         7.4626070        1        53         2.0687805        4
    25        12.9986374        1        54         3.5873181        4
    26         0.7873450        2        55         3.9669055        4
    27         0.9561115        2        56         4.3253374        4
    28         2.0399868        2        57         6.9539598        4
    29         3.3556819        2        58         7.2547757        4
------------------------------------------------------------------------
  @CHECKOUT-I, Total execution time (CPU/WALL):        0.07/       0.03 seconds.
--executable xvtran finished with status     0 in        0.27 seconds (walltime).
 --invoking executable--
/lcrc/project/PACC/brossdh/cfour_blues/bin/xintprc
 @GETMEM-I,  Allocated   28610 MB of main memory.
  @GMOIAA-I, Processing MO integrals for spin case AA.
  @GMOIAA-I, Generation of integral list completed.
                      TYPE                NUMBER
                      ----               --------
                      PPPP                     0
                      PPPH                 98028
                      PPHH                  9372
                      PHPH                  5838
                      PHHH                  1131
                      HHHH                    49

                     TOTAL                114418

  @FORMT2-I, Second-order MP correlation energies:
            ------------------------------------------------
            E(SCF)                  =    -76.057544809606 a.u.
            E2(AA)                  =     -0.033226326349 a.u.
            E2(AB)                  =     -0.208147926131 a.u.
            E2(TOT)                 =     -0.274600578828 a.u.
            Total MP2 energy        =    -76.332145388434 a.u.
            ------------------------------------------------
   Largest T2 amplitudes for spin case AB:
       _       _                 _       _                 _       _
   i   j   a   b             i   j   a   b             i   j   a   b
-----------------------------------------------------------------------------
[  4   4  26  26]-0.04477 [  3   3   8   8]-0.02834 [  4   3  26   8]-0.02749
[  3   4   8  26]-0.02749 [  5   4  38  26]-0.02334 [  4   5  26  38]-0.02334
[  5   5  37  37]-0.02264 [  5   5   7   7]-0.02167 [  5   5  38  38]-0.02156
[  5   4  36  26]-0.02044 [  4   5  26  36]-0.02044 [  3   3  37  37]-0.01931
[  5   3  38   8]-0.01878 [  3   5   8  38]-0.01878 [  5   5  36  36]-0.01803
-----------------------------------------------------------------------------
   Norm of T2AB vector (    18479 symmetry allowed elements):  0.2113838869.
-----------------------------------------------------------------------------
  @CHECKOUT-I, Total execution time (CPU/WALL):        0.03/       0.05 seconds.
--executable xintprc finished with status     0 in        0.10 seconds (walltime).
  calling xvcc 
 --invoking executable--
/lcrc/project/PACC/brossdh/cfour_blues/bin/xecc
 @GETMEM-I,  Allocated   28610 MB of main memory.
 CCSD(T) energy will be calculated.
 AO based algorithm is used. 
 Largest T2 amplitudes for spin case AB:
        _       _                 _       _                 _       _
    i   j   a   b             i   j   a   b             i   j   a   b
 -----------------------------------------------------------------------------
 [  4   4  26  26]-0.04477 [  3   3   8   8]-0.02834 [  4   3  26   8]-0.02749
 [  3   4   8  26]-0.02749 [  5   4  38  26]-0.02334 [  4   5  26  38]-0.02334
 [  5   5  37  37]-0.02264 [  5   5   7   7]-0.02167 [  5   5  38  38]-0.02156
 [  5   4  36  26]-0.02044 [  4   5  26  36]-0.02044 [  3   3  37  37]-0.01931
 [  5   3  38   8]-0.01878 [  3   5   8  38]-0.01878 [  5   5  36  36]-0.01803
 -----------------------------------------------------------------------------
 Norm of T2AB vector (    18479 symmetry allowed elements):  0.2113838869.
 -----------------------------------------------------------------------------
 The total correlation energy is -0.274600578828 a.u.
 Resorts of amplitudes and integrals (CPU/WALL):       0.00/       0.00 seconds.
 Starting iterative solution of the CC equations.
 The DIIS procedure is used to accelerate convergence.
 5 expansion vectors are used in the DIIS extrapolation.
 Convergence criterium is 10**(-7).
 Maximum number of iterations is  50.
 >>>>>>>>>>>>>>>>>>>>>>>>>>>>>>>>>>>>>>>>>>>>>>>>>>>>>>>>>>>>>>>>>>>>>>>>>>>>>>>
 Iteration Nr.   1 started:
 Generation of Intermediates required (CPU/WALL):      0.03/       0.01 seconds.
 Transformation of t(ab,ij) amplitudes required    0.0 seconds.
 Contraction of t(mu nu,ij) with AO integrals required    0.1 seconds.
 Backtransformation of t(mu nu,ij) increments required    0.0 seconds.
 Construction of Hbar required (CPU/WALL):             0.09/       0.02 seconds.
 Amplitude changes are:
 -------------------------------------------------------------------
              Spin      RMS          Max.      Max. change for
  Amplitude   Case     Change       Change       i    j    a    b
 -------------------------------------------------------------------
     T1        AA    0.0001835269-0.0052951554    4        26
     T2        AB    0.0000012869 0.0025428744    4    3   26    8
 -------------------------------------------------------------------
 The total correlation energy is -0.274898622956 a.u.
 Convergence information after     1 iterations: 
 Largest element of residual vector : -0.52951554E-02.
 Largest element of DIIS residual   : -0.52951554E-02.
 Iteration Nr.   1 required (CPU/WALL):                0.13/       0.03 seconds.
 >>>>>>>>>>>>>>>>>>>>>>>>>>>>>>>>>>>>>>>>>>>>>>>>>>>>>>>>>>>>>>>>>>>>>>>>>>>>>>>
 Iteration Nr.   2 started:
 Generation of Intermediates required (CPU/WALL):      0.02/       0.01 seconds.
 Transformation of t(ab,ij) amplitudes required    0.0 seconds.
 Contraction of t(mu nu,ij) with AO integrals required    0.0 seconds.
 Backtransformation of t(mu nu,ij) increments required    0.0 seconds.
 Construction of Hbar required (CPU/WALL):             0.06/       0.01 seconds.
 Amplitude changes are:
 -------------------------------------------------------------------
              Spin      RMS          Max.      Max. change for
  Amplitude   Case     Change       Change       i    j    a    b
 -------------------------------------------------------------------
     T1        AA    0.0000203542-0.0008292214    4        26
     T2        AB    0.0000005200-0.0022092022    4    4   26   26
 -------------------------------------------------------------------
 The total correlation energy is -0.279629478666 a.u.
 Convergence information after     2 iterations: 
 Largest element of residual vector : -0.22092022E-02.
 Largest element of DIIS residual   : -0.22549620E-02.
 Iteration Nr.   2 required (CPU/WALL):                0.09/       0.02 seconds.
 >>>>>>>>>>>>>>>>>>>>>>>>>>>>>>>>>>>>>>>>>>>>>>>>>>>>>>>>>>>>>>>>>>>>>>>>>>>>>>>
 Iteration Nr.   3 started:
 Generation of Intermediates required (CPU/WALL):      0.02/       0.01 seconds.
 Transformation of t(ab,ij) amplitudes required    0.0 seconds.
 Contraction of t(mu nu,ij) with AO integrals required    0.0 seconds.
 Backtransformation of t(mu nu,ij) increments required    0.0 seconds.
 Construction of Hbar required (CPU/WALL):             0.06/       0.01 seconds.
 Amplitude changes are:
 -------------------------------------------------------------------
              Spin      RMS          Max.      Max. change for
  Amplitude   Case     Change       Change       i    j    a    b
 -------------------------------------------------------------------
     T1        AA    0.0000155561-0.0007271391    3         6
     T2        AB    0.0000001511-0.0004794829    4    4   26   26
 -------------------------------------------------------------------
 The total correlation energy is -0.279981925835 a.u.
 Convergence information after     3 iterations: 
 Largest element of residual vector : -0.72713905E-03.
 Largest element of DIIS residual   : -0.67422205E-03.
 Iteration Nr.   3 required (CPU/WALL):                0.09/       0.02 seconds.
 >>>>>>>>>>>>>>>>>>>>>>>>>>>>>>>>>>>>>>>>>>>>>>>>>>>>>>>>>>>>>>>>>>>>>>>>>>>>>>>
 Iteration Nr.   4 started:
 Generation of Intermediates required (CPU/WALL):      0.02/       0.01 seconds.
 Transformation of t(ab,ij) amplitudes required    0.0 seconds.
 Contraction of t(mu nu,ij) with AO integrals required    0.0 seconds.
 Backtransformation of t(mu nu,ij) increments required    0.0 seconds.
 Construction of Hbar required (CPU/WALL):             0.06/       0.01 seconds.
 Amplitude changes are:
 -------------------------------------------------------------------
              Spin      RMS          Max.      Max. change for
  Amplitude   Case     Change       Change       i    j    a    b
 -------------------------------------------------------------------
     T1        AA    0.0000021757 0.0001024369    3         7
     T2        AB    0.0000000318-0.0001048007    3    3    6    6
 -------------------------------------------------------------------
 The total correlation energy is -0.280384308151 a.u.
 Convergence information after     4 iterations: 
 Largest element of residual vector : -0.10480067E-03.
 Largest element of DIIS residual   :  0.86933116E-04.
 Iteration Nr.   4 required (CPU/WALL):                0.09/       0.02 seconds.
 >>>>>>>>>>>>>>>>>>>>>>>>>>>>>>>>>>>>>>>>>>>>>>>>>>>>>>>>>>>>>>>>>>>>>>>>>>>>>>>
 Iteration Nr.   5 started:
 Generation of Intermediates required (CPU/WALL):      0.02/       0.01 seconds.
 Transformation of t(ab,ij) amplitudes required    0.0 seconds.
 Contraction of t(mu nu,ij) with AO integrals required    0.0 seconds.
 Backtransformation of t(mu nu,ij) increments required    0.0 seconds.
 Construction of Hbar required (CPU/WALL):             0.06/       0.01 seconds.
 Amplitude changes are:
 -------------------------------------------------------------------
              Spin      RMS          Max.      Max. change for
  Amplitude   Case     Change       Change       i    j    a    b
 -------------------------------------------------------------------
     T1        AA    0.0000014596-0.0001129049    3         6
     T2        AB    0.0000000075 0.0000223499    5    5    7    7
 -------------------------------------------------------------------
 The total correlation energy is -0.280403724688 a.u.
 Convergence information after     5 iterations: 
 Largest element of residual vector : -0.11290494E-03.
 Largest element of DIIS residual   : -0.72878862E-04.
 Iteration Nr.   5 required (CPU/WALL):                0.09/       0.02 seconds.
 Largest T1 amplitudes for spin case AA:
    i       a                 i       a                 i       a    
 -----------------------------------------------------------------------------
 [  4      26    ]-0.00685 [  5      40    ] 0.00582 [  3       6    ]-0.00501
 [  4      27    ]-0.00491 [  3       9    ] 0.00443 [  3      11    ]-0.00425
 [  2       8    ] 0.00387 [  5      45    ] 0.00384 [  3      17    ] 0.00382
 [  3       8    ]-0.00362 [  4      30    ] 0.00331 [  4      31    ] 0.00291
 [  5      38    ] 0.00288 [  5      36    ]-0.00256 [  5      47    ] 0.00248
 -----------------------------------------------------------------------------
 Norm of T1AA vector (       86 symmetry allowed elements):  0.0179684006.
 -----------------------------------------------------------------------------
 Largest T2 amplitudes for spin case AB:
        _       _                 _       _                 _       _
    i   j   a   b             i   j   a   b             i   j   a   b
 -----------------------------------------------------------------------------
 [  4   4  26  26]-0.04747 [  3   3   8   8]-0.02968 [  5   5  37  37]-0.02619
 [  4   3  26   8]-0.02588 [  3   4   8  26]-0.02588 [  5   5   7   7]-0.02502
 [  5   5  38  38]-0.02279 [  5   4  38  26]-0.02221 [  4   5  26  38]-0.02221
 [  3   3  37  37]-0.02173 [  5   5  38  36]-0.01894 [  5   5  36  38]-0.01894
 [  5   4  36  26]-0.01892 [  4   5  26  36]-0.01892 [  5   5  36  36]-0.01879
 -----------------------------------------------------------------------------
 Norm of T2AB vector (    18479 symmetry allowed elements):  0.2281919594.
 -----------------------------------------------------------------------------
 >>>>>>>>>>>>>>>>>>>>>>>>>>>>>>>>>>>>>>>>>>>>>>>>>>>>>>>>>>>>>>>>>>>>>>>>>>>>>>>
 Iteration Nr.   6 started:
 Generation of Intermediates required (CPU/WALL):      0.02/       0.01 seconds.
 Transformation of t(ab,ij) amplitudes required    0.0 seconds.
 Contraction of t(mu nu,ij) with AO integrals required    0.0 seconds.
 Backtransformation of t(mu nu,ij) increments required    0.0 seconds.
 Construction of Hbar required (CPU/WALL):             0.06/       0.01 seconds.
 Amplitude changes are:
 -------------------------------------------------------------------
              Spin      RMS          Max.      Max. change for
  Amplitude   Case     Change       Change       i    j    a    b
 -------------------------------------------------------------------
     T1        AA    0.0000004758-0.0000349894    3         6
     T2        AB    0.0000000019-0.0000072458    3    3    6    8
 -------------------------------------------------------------------
 The total correlation energy is -0.280404832999 a.u.
 Convergence information after     6 iterations: 
 Largest element of residual vector : -0.34989420E-04.
 Largest element of DIIS residual   : -0.21150679E-04.
 Iteration Nr.   6 required (CPU/WALL):                0.09/       0.02 seconds.
 >>>>>>>>>>>>>>>>>>>>>>>>>>>>>>>>>>>>>>>>>>>>>>>>>>>>>>>>>>>>>>>>>>>>>>>>>>>>>>>
 Iteration Nr.   7 started:
 Generation of Intermediates required (CPU/WALL):      0.02/       0.01 seconds.
 Transformation of t(ab,ij) amplitudes required    0.0 seconds.
 Contraction of t(mu nu,ij) with AO integrals required    0.0 seconds.
 Backtransformation of t(mu nu,ij) increments required    0.0 seconds.
 Construction of Hbar required (CPU/WALL):             0.05/       0.01 seconds.
 Amplitude changes are:
 -------------------------------------------------------------------
              Spin      RMS          Max.      Max. change for
  Amplitude   Case     Change       Change       i    j    a    b
 -------------------------------------------------------------------
     T1        AA    0.0000002429-0.0000194111    3         6
     T2        AB    0.0000000006 0.0000019740    5    5    6    6
 -------------------------------------------------------------------
 The total correlation energy is -0.280405094044 a.u.
 Convergence information after     7 iterations: 
 Largest element of residual vector : -0.19411082E-04.
 Largest element of DIIS residual   : -0.67313197E-05.
 Iteration Nr.   7 required (CPU/WALL):                0.09/       0.02 seconds.
 >>>>>>>>>>>>>>>>>>>>>>>>>>>>>>>>>>>>>>>>>>>>>>>>>>>>>>>>>>>>>>>>>>>>>>>>>>>>>>>
 Iteration Nr.   8 started:
 Generation of Intermediates required (CPU/WALL):      0.02/       0.01 seconds.
 Transformation of t(ab,ij) amplitudes required    0.0 seconds.
 Contraction of t(mu nu,ij) with AO integrals required    0.0 seconds.
 Backtransformation of t(mu nu,ij) increments required    0.0 seconds.
 Construction of Hbar required (CPU/WALL):             0.06/       0.01 seconds.
 Amplitude changes are:
 -------------------------------------------------------------------
              Spin      RMS          Max.      Max. change for
  Amplitude   Case     Change       Change       i    j    a    b
 -------------------------------------------------------------------
     T1        AA    0.0000000547-0.0000043089    3         6
     T2        AB    0.0000000002 0.0000007119    5    5   36   36
 -------------------------------------------------------------------
 The total correlation energy is -0.280405112292 a.u.
 Convergence information after     8 iterations: 
 Largest element of residual vector : -0.43088975E-05.
 Largest element of DIIS residual   : -0.12368326E-05.
 Iteration Nr.   8 required (CPU/WALL):                0.09/       0.02 seconds.
 >>>>>>>>>>>>>>>>>>>>>>>>>>>>>>>>>>>>>>>>>>>>>>>>>>>>>>>>>>>>>>>>>>>>>>>>>>>>>>>
 Iteration Nr.   9 started:
 Generation of Intermediates required (CPU/WALL):      0.02/       0.01 seconds.
 Transformation of t(ab,ij) amplitudes required    0.0 seconds.
 Contraction of t(mu nu,ij) with AO integrals required    0.0 seconds.
 Backtransformation of t(mu nu,ij) increments required    0.0 seconds.
 Construction of Hbar required (CPU/WALL):             0.05/       0.01 seconds.
 Amplitude changes are:
 -------------------------------------------------------------------
              Spin      RMS          Max.      Max. change for
  Amplitude   Case     Change       Change       i    j    a    b
 -------------------------------------------------------------------
     T1        AA    0.0000000114-0.0000008741    3         6
     T2        AB    0.0000000001-0.0000002423    5    5    6    6
 -------------------------------------------------------------------
 The total correlation energy is -0.280405175566 a.u.
 Convergence information after     9 iterations: 
 Largest element of residual vector : -0.87409689E-06.
 Largest element of DIIS residual   : -0.23773782E-06.
 Iteration Nr.   9 required (CPU/WALL):                0.09/       0.02 seconds.
 >>>>>>>>>>>>>>>>>>>>>>>>>>>>>>>>>>>>>>>>>>>>>>>>>>>>>>>>>>>>>>>>>>>>>>>>>>>>>>>
 Iteration Nr.  10 started:
 Generation of Intermediates required (CPU/WALL):      0.02/       0.01 seconds.
 Transformation of t(ab,ij) amplitudes required    0.0 seconds.
 Contraction of t(mu nu,ij) with AO integrals required    0.0 seconds.
 Backtransformation of t(mu nu,ij) increments required    0.0 seconds.
 Construction of Hbar required (CPU/WALL):             0.05/       0.01 seconds.
 Amplitude changes are:
 -------------------------------------------------------------------
              Spin      RMS          Max.      Max. change for
  Amplitude   Case     Change       Change       i    j    a    b
 -------------------------------------------------------------------
     T1        AA    0.0000000036-0.0000002726    3         6
     T2        AB    0.0000000000-0.0000000570    5    5    6    6
 -------------------------------------------------------------------
 The total correlation energy is -0.280405148353 a.u.
 Convergence information after    10 iterations: 
 Largest element of residual vector : -0.27263018E-06.
 Largest element of DIIS residual   : -0.70061556E-07.
 Iteration Nr.  10 required (CPU/WALL):                0.09/       0.02 seconds.
 Largest T1 amplitudes for spin case AA:
    i       a                 i       a                 i       a    
 -----------------------------------------------------------------------------
 [  4      26    ]-0.00684 [  5      40    ] 0.00582 [  3       6    ]-0.00510
 [  4      27    ]-0.00490 [  3       9    ] 0.00443 [  3      11    ]-0.00424
 [  2       8    ] 0.00387 [  5      45    ] 0.00384 [  3      17    ] 0.00382
 [  3       8    ]-0.00363 [  4      30    ] 0.00331 [  4      31    ] 0.00291
 [  5      38    ] 0.00289 [  5      36    ]-0.00255 [  5      47    ] 0.00248
 -----------------------------------------------------------------------------
 Norm of T1AA vector (       86 symmetry allowed elements):  0.0179879312.
 -----------------------------------------------------------------------------
 Largest T2 amplitudes for spin case AB:
        _       _                 _       _                 _       _
    i   j   a   b             i   j   a   b             i   j   a   b
 -----------------------------------------------------------------------------
 [  4   4  26  26]-0.04746 [  3   3   8   8]-0.02968 [  5   5  37  37]-0.02619
 [  4   3  26   8]-0.02587 [  3   4   8  26]-0.02587 [  5   5   7   7]-0.02501
 [  5   5  38  38]-0.02280 [  5   4  38  26]-0.02221 [  4   5  26  38]-0.02221
 [  3   3  37  37]-0.02173 [  5   5  38  36]-0.01894 [  5   5  36  38]-0.01894
 [  5   4  36  26]-0.01891 [  4   5  26  36]-0.01891 [  5   5  36  36]-0.01880
 -----------------------------------------------------------------------------
 Norm of T2AB vector (    18479 symmetry allowed elements):  0.2281910524.
 -----------------------------------------------------------------------------
 >>>>>>>>>>>>>>>>>>>>>>>>>>>>>>>>>>>>>>>>>>>>>>>>>>>>>>>>>>>>>>>>>>>>>>>>>>>>>>>
 Iteration Nr.  11 started:
 Generation of Intermediates required (CPU/WALL):      0.02/       0.01 seconds.
 Transformation of t(ab,ij) amplitudes required    0.0 seconds.
 Contraction of t(mu nu,ij) with AO integrals required    0.0 seconds.
 Backtransformation of t(mu nu,ij) increments required    0.0 seconds.
 Construction of Hbar required (CPU/WALL):             0.05/       0.01 seconds.
 Amplitude changes are:
 -------------------------------------------------------------------
              Spin      RMS          Max.      Max. change for
  Amplitude   Case     Change       Change       i    j    a    b
 -------------------------------------------------------------------
     T1        AA    0.0000000004 0.0000000181    3         6
     T2        AB    0.0000000000-0.0000000195    5    5    6    6
 -------------------------------------------------------------------
 The total correlation energy is -0.280405151436 a.u.
 Convergence information after    11 iterations: 
 Largest element of residual vector : -0.19485678E-07.
 Largest element of DIIS residual   :  0.22533709E-07.
 Amplitude equations converged in    11 iterations.
 Iteration Nr.  11 required (CPU/WALL):                0.09/       0.02 seconds.
 The total correlation energy is -0.280405149709 a.u.
 
 Summary of iterative solution of CC equations:
 -----------------------------------------------------------
                 Correlation           Total
  Iteration        Energy              Energy
 -----------------------------------------------------------
      0     -0.2746005788278950   -76.332145388434   DIIS 
      1     -0.2748986229560755   -76.332443432562   DIIS 
      2     -0.2796294786663946   -76.337174288272   DIIS 
      3     -0.2799819258353246   -76.337526735441   DIIS 
      4     -0.2803843081515000   -76.337929117757   DIIS 
      5     -0.2804037246884886   -76.337948534294   DIIS 
      6     -0.2804048329985534   -76.337949642604   DIIS 
      7     -0.2804050940438202   -76.337949903650   DIIS 
      8     -0.2804051122924575   -76.337949921898   DIIS 
      9     -0.2804051755660583   -76.337949985172   DIIS 
     10     -0.2804051483532786   -76.337949957959   DIIS 
     11     -0.2804051497088568   -76.337949959315   DIIS 
 -----------------------------------------------------------
 A miracle come to pass. The CC iterations have converged.
 
 Non-iterative perturbative treatment of triple
 excitations using the CCSD(T) method ...
 PARA: timing for (T)                0.17 seconds on CPU No.   0
 ... required                        (CPU/WALL):       0.07/       0.06 seconds.
--------------------------------------------------------------------------------
  HF-SCF energy                            -76.057544809606
  MP2 correlation energy                    -0.274600578828
  MP2 energy                               -76.332145388434
  CCSD correlation energy                   -0.280405149709
  CCSD energy                              -76.337949959315
--------------------------------------------------------------------------------
  CCSD(T) energy                           -76.345659757608
--------------------------------------------------------------------------------
  @CHECKOUT-I, Total execution time (CPU/WALL):        1.30/       0.33 seconds.
--executable xecc finished with status     0 in        0.46 seconds (walltime).
 --invoking executable--
/lcrc/project/PACC/brossdh/cfour_blues/bin/xlcc
 @GETMEM-I,  Allocated   28610 MB of main memory.
 Lambda equations are solved for CCSD(T)
 AO based algorithm is used. 
 The total correlation energy is -0.280437512335 a.u.
 Starting iterative solution of the Lambda equations.
 The DIIS procedure is used to accelerate convergence.
 5 expansion vectors are used in the DIIS extrapolation.
 Convergence criterium is 10**(-7).
 Maximum number of iterations is  50.
 The total correlation energy is -0.291506322924 a.u.
 Convergence information after     1 iterations: 
 Largest element of residual vector : -0.38304171E-02.
 Largest element of DIIS residual   : -0.38304171E-02.
 The total correlation energy is -0.289924948056 a.u.
 Convergence information after     2 iterations: 
 Largest element of residual vector : -0.11441548E-02.
 Largest element of DIIS residual   : -0.80243256E-03.
 The total correlation energy is -0.290170761991 a.u.
 Convergence information after     3 iterations: 
 Largest element of residual vector :  0.19464707E-03.
 Largest element of DIIS residual   :  0.15230215E-03.
 The total correlation energy is -0.290171430875 a.u.
 Convergence information after     4 iterations: 
 Largest element of residual vector : -0.17504727E-03.
 Largest element of DIIS residual   : -0.13317742E-03.
 The total correlation energy is -0.290173421226 a.u.
 Convergence information after     5 iterations: 
 Largest element of residual vector : -0.59764523E-04.
 Largest element of DIIS residual   : -0.27084954E-04.
 The total correlation energy is -0.290175387542 a.u.
 Convergence information after     6 iterations: 
 Largest element of residual vector : -0.21691500E-04.
 Largest element of DIIS residual   : -0.91016264E-05.
 The total correlation energy is -0.290175048645 a.u.
 Convergence information after     7 iterations: 
 Largest element of residual vector : -0.42238711E-05.
 Largest element of DIIS residual   :  0.94207138E-06.
 The total correlation energy is -0.290174972183 a.u.
 Convergence information after     8 iterations: 
 Largest element of residual vector : -0.74590925E-06.
 Largest element of DIIS residual   :  0.53101244E-06.
 The total correlation energy is -0.290174936778 a.u.
 Convergence information after     9 iterations: 
 Largest element of residual vector : -0.12468759E-06.
 Largest element of DIIS residual   :  0.82051240E-07.
 The total correlation energy is -0.290174946234 a.u.
 Convergence information after    10 iterations: 
 Largest element of residual vector :  0.45710960E-07.
 Largest element of DIIS residual   :  0.20961443E-07.
 Amplitude equations converged in    10 iterations.
 The total correlation energy is -0.290174945475 a.u.
 Summary of iterative solution of CC equations 
 -----------------------------------------------------------
                 Correlation           Total
  Iteration        Energy              Energy
 -----------------------------------------------------------
      0     -0.2804375123349122   -76.337982321941   DIIS 
      1     -0.2915063229236643   -76.349051132529   DIIS 
      2     -0.2899249480563509   -76.347469757662   DIIS 
      3     -0.2901707619910008   -76.347715571597   DIIS 
      4     -0.2901714308753485   -76.347716240481   DIIS 
      5     -0.2901734212256495   -76.347718230831   DIIS 
      6     -0.2901753875422111   -76.347720197148   DIIS 
      7     -0.2901750486450365   -76.347719858251   DIIS 
      8     -0.2901749721826278   -76.347719781788   DIIS 
      9     -0.2901749367775768   -76.347719746383   DIIS 
     10     -0.2901749454752920   -76.347719755081   DIIS 
 -----------------------------------------------------------
 A miracle come to pass. The CC iterations have converged.
  @CHECKOUT-I, Total execution time (CPU/WALL):        1.11/       0.29 seconds.
--executable xlcc finished with status     0 in        0.45 seconds (walltime).
 --invoking executable--
/lcrc/project/PACC/brossdh/cfour_blues/bin/xdens
 @GETMEM-I,  Allocated   28610 MB of main memory.
  CCSD(T) density and intermediates are calculated.
  The perturbed orbitals are chosen canonical.
  Direct algorithm used for all contributions involving G(AB,CD).
 rdaoijkl2 libr
 rdaoijkl2 libr
 rdaoijkl2 libr
 rdaoijkl2 libr
  W(abef) AB contribution =  0.0639192707 a.u.
 rdaoijkl2 libr
 rdaoijkl2 libr
 rdaoijkl2 libr
 rdaoijkl2 libr
  W(abef) AB contribution =  0.0671876404 a.u.
 Para: T
 Para: T
 Para: T
 Para: T
                     1                     1
                     2                     2
                     3                     3
                     4                     4
  processed                  11944  ao basis integrals from 
                    20  buffers.
  processed                  35554  ao basis integrals from 
                    60  buffers.
  processed                  19604  ao basis integrals from 
                    33  buffers.
  processed                  21942  ao basis integrals from 
                    37  buffers.
  The iterative expansion of D(ai) converged after  16 iterations.
  ----------------------------------------------------------------------
                 Natural orbital occupation numbers
  ----------------------------------------------------------------------
  1.99952  1.98060  1.96392  1.95962  1.95872  0.02848  0.02624  0.01982
  0.01325  0.00760  0.00730  0.00724  0.00643  0.00642  0.00145  0.00144
  0.00117  0.00113  0.00101  0.00096  0.00081  0.00081  0.00077  0.00061
  0.00051  0.00049  0.00047  0.00045  0.00042  0.00042  0.00022  0.00021
  0.00015  0.00014  0.00014  0.00013  0.00013  0.00009  0.00008  0.00007
  0.00007  0.00007  0.00006  0.00006  0.00005  0.00005  0.00005  0.00003
  0.00003  0.00002  0.00001  0.00001  0.00001  0.00001  0.00001  0.00001
  0.00001  0.00000
  Trace of density matrix :  10.0000000000.
  ----------------------------------------------------------------------
  Density calculation successfully completed.
  @CHECKOUT-I, Total execution time (CPU/WALL):        0.33/       0.09 seconds.
--executable xdens finished with status     0 in        0.25 seconds (walltime).
 --invoking executable--
/lcrc/project/PACC/brossdh/cfour_blues/bin/xanti
 @GETMEM-I,  Allocated   28610 MB of main memory.
 CCSD(T) MO gammas will be sorted to Mulliken order.
  @CHECKOUT-I, Total execution time (CPU/WALL):        0.05/       0.05 seconds.
--executable xanti finished with status     0 in        0.09 seconds (walltime).
 --invoking executable--
/lcrc/project/PACC/brossdh/cfour_blues/bin/xbcktrn
 @GETMEM-I,  Allocated   28610 MB of main memory.
  @CHECKOUT-I, Total execution time (CPU/WALL):        0.03/       0.04 seconds.
--executable xbcktrn finished with status     0 in        0.07 seconds (walltime).
 --invoking executable--
/lcrc/project/PACC/brossdh/cfour_blues/bin/xvdint
 @GETMEM-I,  Allocated   28610 MB of main memory.
 One- and two-electron integral derivatives are calculated
 for RHF-CC/MBPT gradients and dipole moments.
 Spherical gaussians are used.

                     Kinetic energy integral gradient
                     --------------------------------

                         O #1 z    -0.8962009902
                         H #2 y     1.1270619102
                         H #2 z     0.8962009902


 O #1       0.0000000000            0.0000000000           -0.8962009902
 H #2 1     0.0000000000            0.5635309551            0.4481004951
 H #2 2     0.0000000000           -0.5635309551            0.4481004951



                   Nuclear attraction integral gradient
                   ------------------------------------

                         O #1 z     7.9562965659
                         H #2 y   -10.1444962653
                         H #2 z    -7.9562965659


 O #1       0.0000000000            0.0000000000            7.9562965659
 H #2 1     0.0000000000           -5.0722481326           -3.9781482829
 H #2 2     0.0000000000            5.0722481326           -3.9781482829



                      Reorthonormalization gradient
                      -----------------------------

                         O #1 z    -0.3988652007
                         H #2 y     0.4321186176
                         H #2 z     0.3988652007


 O #1       0.0000000000            0.0000000000           -0.3988652007
 H #2 1     0.0000000000            0.2160593088            0.1994326004
 H #2 2     0.0000000000           -0.2160593088            0.1994326004



                Electronic contributions to dipole moment
                -----------------------------------------

                               au             Debye

                    z      0.21987637      0.55887008

  Conversion factor used: 1 a.u. =   2.54174691 Debye 


  Evaluation of 1e integral derivatives required    0.08 seconds.
  Evaluation of 2el integral derivatives

                      Two-electron integral gradient
                      ------------------------------

                         O #1 z    -3.6325239953
                         H #2 y     4.4232910372
                         H #2 z     3.6325239953


 O #1       0.0000000000            0.0000000000           -3.6325239953
 H #2 1     0.0000000000            2.2116455186            1.8162619977
 H #2 2     0.0000000000           -2.2116455186            1.8162619977


  Evaluation of 2e integral derivatives required    1.70 seconds.

                            Molecular gradient
                            ------------------

                         O #1 z    -0.0106416948
                         H #2 y     0.0114969167
                         H #2 z     0.0106416948


 O #1       0.0000000000            0.0000000000           -0.0106416948
 H #2 1     0.0000000000            0.0057484584            0.0053208474
 H #2 2     0.0000000000           -0.0057484584            0.0053208474


  Molecular gradient norm 0.189E-01

                           Total dipole moment
                           -------------------

                               au             Debye

                    z     -0.74824706     -1.90185465

  Conversion factor used: 1 a.u. =   2.54174691 Debye 


  @CHECKOUT-I, Total execution time (CPU/WALL):        1.75/       0.56 seconds.
--executable xvdint finished with status     0 in        0.70 seconds (walltime).
 --invoking executable--
/lcrc/project/PACC/brossdh/cfour_blues/bin/xjoda
   JODA beginning optimization cycle #  1.
 OriVec is   0.000000000000000E+000  -1.00000000000000     
  3.910674402601636E-016                    -2
  igrd and ihes are                      0                     0
  fetching hessian                     81
  iavhes is                      0
   Internal coordinate forces and energy gradients (atomic units): 
           R       dV/dR             R       dV/dR             R       dV/dR
 [r1   ]  1.79524 -0.0078028 [r1   ]  1.79524 -0.0078028 [a1   ]  1.82387  0.0012348
                     0                     0                     0 ****
   Optimization cycle  1.  Updating structure with Newton-Raphson step.
  @EFOL-I, Current internal coordinate Hessian written to FCMINT.
   There are   2 independent internal coordinates which will be optimized.
   Hessian matrix in totally symmetric symmetry coordinates: 
              r1        a1   
  r1         1.000000  0.000000
  a1         0.000000  0.250000
   The eigenvectors of the Hessian matrix: 
                   1         2
  r1         0.000000  1.000000
  a1         1.000000  0.000000
   The eigenvalues of the Hessian matrix: 
     0.25000    1.00000
   Gradients along Hessian eigenvectors: 
     0.00123   -0.01103
   There are  0 negative eigenvalues.
   Summary of Optimization Cycle: 
   The maximum unscaled step is:    0.00923.
   Scale factor set to:  1.00000.
   Forces are in hartree/bohr and hartree/radian.
   Parameter values are in Angstroms and degrees.
--------------------------------------------------------------------------
  Parameter     dV/dR           Step          Rold            Rnew
--------------------------------------------------------------------------
    r1     -0.0078027608    0.0041290423    0.9500000000    0.9541290423
    a1      0.0012348255   -0.2830011523  104.5000000000  104.2169988477
--------------------------------------------------------------------------
  Minimum force:  0.001234825 / RMS force:  0.005586048
 
********************************************************************************
*                          Current ZMATtemp file                               *
********************************************************************************
SP Test                                                                         
O                                                                               
H 1 r1*                                                                         
H 1 r1* 2 a1*                                                                   
                                                                                
r1   =        0.954129042336993                                                 
a1   =      104.216998847655915                                                 
                                                                                
*CFOUR(CALC=CCSD[T]                                                             
CC_PROG=ECC,ABCDTYPE=AOBASIS                                                    
REFERENCE=RHF                                                                   
BASIS=PVTZ                                                                      
MEMORY_SIZE=30,MEM_UNIT=GB                                                      
CHARGE=0,MULTIPLICITY=1)                                                        
                                                                                
********************************************************************************
 Updating structure...
 factor:   60.1997200000000     
 factor:   60.1997200000000     
   Rotational constants (in cm-1): 
 factor:   60.1997200000000     
          9.5917745080            14.7509614274            27.4244562171
   Rotational constants (in MHz): 
     287554.2059188045        442222.7603738125        822164.6290455515
 factor:   60.1997200000000     
 ----------------------------------------------------------------
 Z-matrix   Atomic            Coordinates (in bohr)
  Symbol    Number           X              Y              Z
 ----------------------------------------------------------------
     O         8         0.00000000    -0.00000000     0.12393135
     H         1        -0.00000000    -1.42291679    -0.98344019
     H         1        -0.00000000     1.42291679    -0.98344019
 ----------------------------------------------------------------
   Interatomic distance matrix (Angstroms) 
 
                 O             H             H    
                [ 1]        [ 2]        [ 3]
  O    [ 1]     0.00000
  H    [ 2]     0.95413     0.00000
  H    [ 3]     0.95413     1.50595     0.00000
   Rotational constants (in cm-1): 
          9.5917745080            27.4244562171            14.7509614274
   Rotational constants (in MHz): 
     287554.2059188045        822164.6290455515        442222.7603738126
  There are   58 basis functions.
  @CHECKOUT-I, Total execution time (CPU/WALL):        0.01/       0.03 seconds.
--executable xjoda finished with status     0 in        0.06 seconds (walltime).
 --invoking executable--
/lcrc/project/PACC/brossdh/cfour_blues/bin/xvmol
 Parallel version of molecule started on node            0 :
********************************************************************************
                    Input from MOL file
********************************************************************************
INTGRL        1    0    1    0    0    0    0    0    0                         
         *** CFOUR Program System (Release V0.1) ***                            
SP Test                                                                         
    2    2 X  Y       0.10E-08              0    0                              
   9999.00      3.00                                                            
          8.00000000    1    4    1    1    1    1                              
O #1   0.000000000000000  -0.000000000000000   0.123931345276677                
   10    4                                                                      
   15330.0000000000       5.080000000000000E-004 -1.150000000000000E-004        
  0.000000000000000E+000  0.000000000000000E+000                                
   2299.00000000000       3.929000000000000E-003 -8.950000000000000E-004        
  0.000000000000000E+000  0.000000000000000E+000                                
   522.400000000000       2.024300000000000E-002 -4.636000000000000E-003        
  0.000000000000000E+000  0.000000000000000E+000                                
   147.300000000000       7.918100000000000E-002 -1.872400000000000E-002        
  0.000000000000000E+000  0.000000000000000E+000                                
   47.5500000000000       0.230687000000000      -5.846300000000000E-002        
  0.000000000000000E+000  0.000000000000000E+000                                
   16.7600000000000       0.433118000000000      -0.136463000000000             
  0.000000000000000E+000  0.000000000000000E+000                                
   6.20700000000000       0.350260000000000      -0.175740000000000             
  0.000000000000000E+000  0.000000000000000E+000                                
   1.75200000000000       4.272800000000000E-002  0.160934000000000             
[...]
                            ------------------

                         O #1 z     0.0000056504
                         H #2 y    -0.0000108729
                         H #2 z    -0.0000056504


 O #1       0.0000000000            0.0000000000            0.0000056504
 H #2 1     0.0000000000           -0.0000054365           -0.0000028252
 H #2 2     0.0000000000            0.0000054365           -0.0000028252


  Molecular gradient norm 0.135E-04

                           Total dipole moment
                           -------------------

                               au             Debye

                    z     -0.75375636     -1.91585790

  Conversion factor used: 1 a.u. =   2.54174691 Debye 


  @CHECKOUT-I, Total execution time (CPU/WALL):        1.74/       0.54 seconds.
--executable xvdint finished with status     0 in        0.69 seconds (walltime).
 --invoking executable--
/lcrc/project/PACC/brossdh/cfour_blues/bin/xjoda
   JODA beginning optimization cycle #  5.
   Retrieving information from last optimization cycle.
 OriVec is   0.000000000000000E+000  -1.00000000000000     
  1.949568050430971E-016                    -2
  igrd and ihes are                      0                    -1
   Internal coordinate forces and energy gradients (atomic units): 
           R       dV/dR             R       dV/dR             R       dV/dR
 [r1   ]  1.81003  0.0000060 [r1   ]  1.81003  0.0000060 [a1   ]  1.81041  0.0000021
                     4                    -1                     0 ****
   Hessian from cycle  4 read.
   BFGS update using last two gradients and previous step.
   Optimization cycle  5.  Updating structure with Newton-Raphson step.
  @EFOL-I, Current internal coordinate Hessian written to FCMINT.
   There are   2 independent internal coordinates which will be optimized.
   Hessian matrix in totally symmetric symmetry coordinates: 
              r1        a1   
  r1         0.592068  0.042248
  a1         0.042248  0.165643
   The eigenvectors of the Hessian matrix: 
                   1         2
  r1         0.097653  0.995221
  a1        -0.995221  0.097653
   The eigenvalues of the Hessian matrix: 
     0.16150    0.59621
   Gradients along Hessian eigenvectors: 
    -0.00000    0.00001
   There are  0 negative eigenvalues.
   Summary of Optimization Cycle: 
   The maximum unscaled step is:    0.00001.
   Scale factor set to:  1.00000.
   Forces are in hartree/bohr and hartree/radian.
   Parameter values are in Angstroms and degrees.
--------------------------------------------------------------------------
  Parameter     dV/dR           Step          Rold            Rnew
--------------------------------------------------------------------------
    r1      0.0000060207   -0.0000051436    0.9578253007    0.9578201571
    a1      0.0000020544   -0.0005097169  103.7286059769  103.7280962600
--------------------------------------------------------------------------
  Minimum force:  0.000002054 / RMS force:  0.000004498
--------------------------------------------------------------------------------
   RMS gradient is below .10000E-04.
   Convergence criterion satisfied.  Optimization completed.
--------------------------------------------------------------------------------
   Interatomic distance matrix (Angstroms) 
 
                 O             H             H    
                [ 1]        [ 2]        [ 3]
  O    [ 1]     0.00000
  H    [ 2]     0.95783     0.00000
  H    [ 3]     0.95783     1.50676     0.00000
 @EFOL-I, Writing out completion flag to disk
 
********************************************************************************
*                          Final ZMATnew file                                  *
********************************************************************************
SP Test                                                                         
O                                                                               
H 1 r1*                                                                         
H 1 r1* 2 a1*                                                                   
                                                                                
r1   =        0.957820157108264                                                 
a1   =      103.728096260028082                                                 
                                                                                
*CFOUR(CALC=CCSD[T]                                                             
CC_PROG=ECC,ABCDTYPE=AOBASIS                                                    
REFERENCE=RHF                                                                   
BASIS=PVTZ                                                                      
MEMORY_SIZE=30,MEM_UNIT=GB                                                      
CHARGE=0,MULTIPLICITY=1)                                                        
                                                                                
********************************************************************************
--executable xjoda finished with status     0 in        0.21 seconds (walltime).
 --invoking executable--
/lcrc/project/PACC/brossdh/cfour_blues/bin/xvprop
 @GETMEM-I,  Allocated   28610 MB of main memory.
   Property integrals will be calculated.
    --------------------------------------------------------------
                                   Property evaluated at 
    Property type                X             Y             Z
    --------------------------------------------------------------
    Dipole moment               ----          ----          ----  
    Quadrupole moment           ----          ----          ----  
    Octopole moment             ----          ----          ----  
    Relativisitic corr.         ----          ----          ----  
    Second moment            0.0000000     0.0000000     0.0000000
    Electron density         0.0000000     0.0000000     0.1250917
    Electron density         0.0000000    -1.4236782    -0.9926477
    Electron density         0.0000000     1.4236782    -0.9926477
    Field gradient           0.0000000     0.0000000     0.1250917
    Field gradient           0.0000000    -1.4236782    -0.9926477
    Field gradient           0.0000000     1.4236782    -0.9926477
    Potential                0.0000000     0.0000000     0.1250917
    Potential                0.0000000    -1.4236782    -0.9926477
    Potential                0.0000000     1.4236782    -0.9926477
    --------------------------------------------------------------
 
  @CHECKOUT-I, Total execution time (CPU/WALL):        0.16/       0.16 seconds.
--executable xvprop finished with status     0 in        0.22 seconds (walltime).
 --invoking executable--
/lcrc/project/PACC/brossdh/cfour_blues/bin/xprops
  @DRVPRP-I, Properties computed from the SCF density matrix follow.
   Components of electric dipole moment 
        X =    0.0000000000   Y =   -0.0000000000   Z =   -0.8017944746
   Components of second moment 
       XX =    5.4238378564  YY =    7.1698941650  ZZ =    6.4231961649
       XY =    0.0000000000  XZ =    0.0000000000  YZ =    0.0000000000
   Components of electric quadrupole moment 
       XX =   -1.7020934720  YY =    1.7594010426  ZZ =   -0.0573075706
       XY =    0.0000000000  XZ =    0.0000000000  YZ =    0.0000000000
   Components of electric octopole moment 
      XXX =    0.0000000000 YYY =    0.0000000000 ZZZ =    1.8348296749
      XXY =    0.0000000000 XXZ =    1.2866307131 XYY =    0.0000000000
      YYZ =   -3.1214603880 XZZ =    0.0000000000 YZZ =    0.0000000000
      XYZ =    0.0000000000
  Relativistic correction to the energy 
      Darwin =    0.1998804967 p**4   =   -0.2514606153 Total  =   -0.0515801185
   Charge densities at atomic centers 
          Z-matrix                               Charge
           center                               Density
              1                            298.5942903911
              2                              0.4089446102
              3                              0.4089446102
   Electric field gradient at atomic centers 
                             Z-matrix center   1:
       XX =   -1.8801466924  YY =    1.6718171399  ZZ =    0.2083295526
       XY =    0.0000000000  XZ =    0.0000000000  YZ =   -0.0000000000
                             Z-matrix center   2:
       XX =   -0.2776896191  YY =    0.2363681747  ZZ =    0.0413214443
       XY =    0.0000000000  XZ =    0.0000000000  YZ =    0.3408869927
                             Z-matrix center   3:
       XX =   -0.2776896191  YY =    0.2363681747  ZZ =    0.0413214443
       XY =    0.0000000000  XZ =    0.0000000000  YZ =   -0.3408869927
   Electrostatic potential at atomic centers 
          Z-matrix                             Potential
           center                               [<1/r>]
              1                            -22.3391712281
              2                             -1.0097410076
              3                             -1.0097410076
  @DRVPRP-I, Properties computed from the correlated density matrix follow.
   Components of electric dipole moment 
        X =    0.0000000000   Y =   -0.0000000000   Z =   -0.7537563588
   Components of second moment 
       XX =    5.4699594576  YY =    7.2767805801  ZZ =    6.5076663472
       XY =    0.0000000000  XZ =    0.0000000000  YZ =    0.0000000000
   Components of electric quadrupole moment 
       XX =   -1.6525367744  YY =    1.7178105192  ZZ =   -0.0652737448
       XY =    0.0000000000  XZ =    0.0000000000  YZ =    0.0000000000
   Components of electric octopole moment 
      XXX =    0.0000000000 YYY =    0.0000000000 ZZZ =    1.7346527066
      XXY =    0.0000000000 XXZ =    1.2033694488 XYY =    0.0000000000
      YYZ =   -2.9380221554 XZZ =    0.0000000000 YZZ =    0.0000000000
      XYZ =    0.0000000000
  Relativistic correction to the energy 
      Darwin =    0.1997696835 p**4   =   -0.2514794464 Total  =   -0.0517097629
   Charge densities at atomic centers 
          Z-matrix                               Charge
           center                               Density
              1                            298.4270713244
              2                              0.4154345750
              3                              0.4154345750
   Electric field gradient at atomic centers 
                             Z-matrix center   1:
       XX =   -1.7774077566  YY =    1.5562956095  ZZ =    0.2211121472
       XY =    0.0000000000  XZ =    0.0000000000  YZ =   -0.0000000000
                             Z-matrix center   2:
       XX =   -0.2836830492  YY =    0.2432964718  ZZ =    0.0403865774
       XY =    0.0000000000  XZ =    0.0000000000  YZ =    0.3496277063
                             Z-matrix center   3:
       XX =   -0.2836830492  YY =    0.2432964718  ZZ =    0.0403865774
       XY =    0.0000000000  XZ =    0.0000000000  YZ =   -0.3496277063
   Electrostatic potential at atomic centers 
          Z-matrix                             Potential
           center                               [<1/r>]
              1                            -22.3472974820
              2                             -1.0083158104
              3                             -1.0083158104
 
  Mulliken population analysis of SCF density.
   Total density is analyzed.
 
  Population analysis by orbitals.
 -------------------------------------------------------
     Z-matrix
      Center          Function          Population
 -------------------------------------------------------
         1                S              1.99863095
         1                S              1.81334664
         1                S             -0.00547787
         1                S             -0.02657758
         1                P              1.83822838
         1                P             -0.01652912
         1                P              0.10142410
         1                P              1.37579521
         1                P             -0.03302680
         1                P             -0.13803117
         1                P              1.57924624
         1                P             -0.02338096
         1                P             -0.00295534
         1                D              0.00039459
         1                D              0.00254270
         1                D              0.00000000
         1                D              0.00000000
         1                D              0.00022900
         1                D              0.00165978
         1                D              0.00007670
         1                D              0.00016920
         1                D              0.00221399
         1                D              0.01057617
         1                D              0.00019617
         1                D              0.00143099
         1                F              0.00004690
         1                F              0.00023965
         1                F              0.00017863
         1                F              0.00006587
         1                F              0.00000000
         1                F              0.00001402
         1                F              0.00001929
         1                F              0.00031889
         1                F              0.00001414
         1                F              0.00000445
         2                S              1.17298455
         3                S              1.17298455
         2                S             -0.24383854
         3                S             -0.24383854
         2                S             -0.25826706
         3                S             -0.25826706
         2                P              0.00425398
         3                P              0.00425398
         2                P              0.03017295
         3                P              0.03017295
         2                P              0.00882686
         3                P              0.00882686
         2                P              0.01012081
         3                P              0.01012081
         2                P              0.00693346
         3                P              0.00693346
         2                P              0.02118746
         3                P              0.02118746
         2                D              0.00036039
         3                D              0.00036039
         2                D              0.00197148
         3                D              0.00197148
         2                D              0.00103211
         3                D              0.00103211
         2                D              0.00099156
         3                D              0.00099156
         2                D              0.00186361
         3                D              0.00186361
         2                D              0.00086449
         3                D              0.00086449
 -------------------------------------------------------
  Population analysis by atoms (atomic charges).
 -------------------------------------------------------
     Z-matrix
      Center          Function          Population
 -------------------------------------------------------
         1                               8.48108381
         2                               0.75945810
         3                               0.75945810
 -------------------------------------------------------
 
  Mulliken population analysis of CCSD(T) density.
   Total density is analyzed.
 
  Population analysis by orbitals.
 -------------------------------------------------------
     Z-matrix
      Center          Function          Population
 -------------------------------------------------------
         1                S              1.99566237
         1                S              1.79175247
         1                S              0.00509736
         1                S             -0.01946583
         1                P              1.82388895
         1                P             -0.04133208
         1                P              0.11697968
         1                P              1.39324233
         1                P             -0.04891977
         1                P             -0.14715253
         1                P              1.57705670
         1                P             -0.04271232
         1                P              0.00112077
         1                D              0.00163817
         1                D              0.00525243
         1                D              0.00183329
         1                D              0.00438018
         1                D              0.00208608
         1                D              0.00607555
         1                D              0.00122414
         1                D              0.00291859
         1                D              0.00376136
         1                D              0.01335627
         1                D              0.00137504
         1                D              0.00410050
         1                F              0.00021299
         1                F              0.00057854
         1                F              0.00051738
         1                F              0.00039031
         1                F              0.00041847
         1                F              0.00035265
         1                F              0.00018534
         1                F              0.00065750
         1                F              0.00035914
         1                F              0.00017199
         2                S              1.18247077
         3                S              1.18247077
         2                S             -0.24965759
         3                S             -0.24965759
         2                S             -0.25724465
         3                S             -0.25724465
         2                P              0.00473568
         3                P              0.00473568
         2                P              0.03568815
         3                P              0.03568815
         2                P              0.00851232
         3                P              0.00851232
         2                P              0.00893208
         3                P              0.00893208
         2                P              0.00697742
         3                P              0.00697742
         2                P              0.02403258
         3                P              0.02403258
         2                D              0.00039597
         3                D              0.00039597
         2                D              0.00197765
         3                D              0.00197765
         2                D              0.00104628
         3                D              0.00104628
         2                D              0.00099432
         3                D              0.00099432
         2                D              0.00171818
         3                D              0.00171818
         2                D              0.00088881
         3                D              0.00088881
 -------------------------------------------------------
  Population analysis by atoms (atomic charges).
 -------------------------------------------------------
     Z-matrix
      Center          Function          Population
 -------------------------------------------------------
         1                               8.45706403
         2                               0.77146799
         3                               0.77146799
 -------------------------------------------------------
  @CHECKOUT-I, Total execution time (CPU/WALL):        0.03/       0.02 seconds.
--executable xprops finished with status     0 in        0.25 seconds (walltime).
  The final electronic energy is       -76.345782307398295 a.u. 
  This computation required                           17.80 seconds (walltime).
