
 Primary working directories    : /scratch/kmoore
 Secondary working directories  : /scratch/kmoore
 Wavefunction directory         : /scratch/kmoore/
 Main file repository           : /scratch/kmoore/

 SHA1      : b6b3a4772808bb2d43777f23454e145ddfe12dc3
 NAME      : 2015.1.1
 ARCHNAME  : linux/x86_64
 FC        : /soft/mvapich2/2.2b_psm/intel-15.0/bin/mpif90
 BLASLIB   : -L/soft/intel/15.0.1/composer_xe_2015.0.090/mkl/lib/intel64 -lmkl_intel_ilp64 -lmkl_sequential -lmkl_core
 id        : anlgov

 Nodes     nprocs
 b450         7
 Number of processes for MPI-2 version of Molpro:   nprocs(total)=    8   nprocs(compute)=    7   nprocs(helper)=    1

 Using customized tuning parameters: mindgm=1; mindgv=20; mindgc=4; mindgr=1; noblas=0; minvec=7
 default implementation of scratch files=df  

 memory,1000,m
 gthresh,energy=1.0d-10,orbital=1.0d-10
 
 angstrom
 Geometry = {
 O
 H 1 r1
 H 1 r1 2 a1
 }
 
 r1 =  0.98
 a1 = 104.5
 
 basis=cc-pVTZ
 
 {rhf}
 {ccsd(t)}
 {optg}
 {freq}
 

 Variables initialized (889), CPU time= 0.01 sec
 Commands  initialized (702), CPU time= 0.00 sec, 572 directives.
 Default parameters read. Elapsed time= 0.09 sec

 Checking input...
 Passed
1


                                         ***  PROGRAM SYSTEM MOLPRO  ***
                                       Copyright, TTI GmbH Stuttgart, 2015
                                    Version 2015.1 linked Jan  8 2016 07:59:11


 **********************************************************************************************************************************
 LABEL *                                                                                 
  64 bit mppx version                                                                    DATE: 15-Dec-18          TIME: 13:16:38  
 **********************************************************************************************************************************

 SHA1:             b6b3a4772808bb2d43777f23454e145ddfe12dc3
 **********************************************************************************************************************************

 THRESHOLDS:

 ZERO    =  1.00D-12  ONEINT  =  1.00D-12  TWOINT  =  1.00D-11  PREFAC  =  1.00D-14  LOCALI  =  1.00D-09  EORDER  =  1.00D-04
 ENERGY  =  1.00D-10  ETEST   =  0.00D+00  EDENS   =  0.00D+00  THRDEDEF=  1.00D-06  GRADIENT=  1.00D-02  STEP    =  1.00D-03
 ORBITAL =  1.00D-10  CIVEC   =  1.00D-05  COEFF   =  1.00D-04  PRINTCI =  5.00D-02  PUNCHCI =  9.90D+01  OPTGRAD =  3.00D-04
 OPTENERG=  1.00D-06  OPTSTEP =  3.00D-04  THRGRAD =  1.00D-10  COMPRESS=  1.00D-11  VARMIN  =  1.00D-07  VARMAX  =  1.00D-03
 THRDOUB =  0.00D+00  THRDIV  =  1.00D-05  THRRED  =  1.00D-07  THRPSP  =  1.00D+00  THRDC   =  1.00D-10  THRCS   =  1.00D-10
 THRNRM  =  1.00D-08  THREQ   =  0.00D+00  THRDE   =  1.00D+00  THRREF  =  1.00D-05  SPARFAC =  1.00D+00  THRDLP  =  1.00D-07
 THRDIA  =  1.00D-10  THRDLS  =  1.00D-07  THRGPS  =  0.00D+00  THRKEX  =  0.00D+00  THRDIS  =  2.00D-01  THRVAR  =  1.00D-10
 THRLOC  =  1.00D-06  THRGAP  =  1.00D-06  THRLOCT = -1.00D+00  THRGAPT = -1.00D+00  THRORB  =  1.00D-06  THRMLTP =  0.00D+00
 THRCPQCI=  1.00D-10  KEXTA   =  0.00D+00  THRCOARS=  0.00D+00  SYMTOL  =  1.00D-06  GRADTOL =  1.00D-06  THROVL  =  1.00D-08
 THRORTH =  1.00D-08  GRID    =  1.00D-06  GRIDMAX =  1.00D-03  DTMAX   =  0.00D+00  THROCCDE=  1.00D-01  THROCCDE=  1.00D-01


 ZUNIT=ANG
 
 SETTING R1             =         0.98000000                                  
 SETTING A1             =       104.50000000                                  

 Variable memory set to 1000000000 words,  buffer space   230000 words

 SETTING BASIS          =    CC-PVTZ


 Recomputing integrals since basis changed


 Using spherical harmonics

 Library entry O      S cc-pVTZ              selected for orbital group  1
 Library entry O      P cc-pVTZ              selected for orbital group  1
 Library entry O      D cc-pVTZ              selected for orbital group  1
 Library entry O      F cc-pVTZ              selected for orbital group  1
 Library entry H      S cc-pVTZ              selected for orbital group  2
 Library entry H      P cc-pVTZ              selected for orbital group  2
 Library entry H      D cc-pVTZ              selected for orbital group  2

1PROGRAM * SEWARD (Integral evaluation for generally contracted gaussian basis sets)     Author: Roland Lindh, 1990

 Geometry written to block  1 of record 700

 Orientation using atomic masses  
 Molecule type: Asymmetric top,     Order of principal axis = 2
 Symmetry elements: X,Y
 Rotational constants:     272.4632506    784.1994164    417.5306268 GHz  (calculated with average atomic masses)

 Point group  C2v 



 ATOMIC COORDINATES

 NR  ATOM    CHARGE       X              Y              Z

   1  O       8.00    0.000000000    0.000000000   -0.126868611
   2  H       1.00    0.000000000    1.464303009    1.006915917
   3  H       1.00    0.000000000   -1.464303009    1.006915917

 Bond lengths in Bohr (Angstrom)

 1-2  1.851931602  1-3  1.851931602
     ( 0.980000000)     ( 0.980000000)

 Bond angles

  2-1-3  104.50000000

 NUCLEAR CHARGE:                   10
 NUMBER OF PRIMITIVE AOS:          81
 NUMBER OF SYMMETRY AOS:           74
 NUMBER OF CONTRACTIONS:           58   (  23A1  +  11B1  +  17B2  +   7A2  )
 NUMBER OF CORE ORBITALS:           1   (   1A1  +   0B1  +   0B2  +   0A2  )
 NUMBER OF VALENCE ORBITALS:        6   (   3A1  +   1B1  +   2B2  +   0A2  )


 NUCLEAR REPULSION ENERGY    8.98108732

 Eigenvalues of metric

         1 0.271E-02 0.624E-02 0.115E-01 0.435E-01 0.872E-01 0.117E+00 0.177E+00 0.274E+00
         2 0.416E-01 0.113E+00 0.260E+00 0.453E+00 0.533E+00 0.720E+00 0.110E+01 0.133E+01
         3 0.491E-02 0.855E-02 0.484E-01 0.724E-01 0.968E-01 0.181E+00 0.283E+00 0.338E+00
         4 0.124E+00 0.326E+00 0.553E+00 0.893E+00 0.121E+01 0.132E+01 0.228E+01


 Contracted 2-electron integrals neglected if value below      1.0D-14
 AO integral compression algorithm  1   Integral accuracy      1.0D-14

     4.456 MB (compressed) written to integral file (100.0%)


 NUMBER OF SORTED TWO-ELECTRON INTEGRALS:     396151.     BUFFER LENGTH:  32768
 NUMBER OF SEGMENTS:   1  SEGMENT LENGTH:     396151      RECORD LENGTH: 524288

 Memory used in sort:       0.95 MW

 SORT1 READ      562034. AND WROTE      366996. INTEGRALS IN      2 RECORDS. CPU TIME:     0.01 SEC, REAL TIME:     0.02 SEC
 SORT2 READ      366996. AND WROTE      396151. INTEGRALS IN     17 RECORDS. CPU TIME:     0.03 SEC, REAL TIME:     0.04 SEC

 FILE SIZES:   FILE 1:    23.6 MBYTE,  FILE 4:     8.4 MBYTE,   TOTAL:     32.0 MBYTE

 OPERATOR DM      FOR CENTER  0  COORDINATES:    0.000000    0.000000    0.000000


 **********************************************************************************************************************************
 DATASETS  * FILE   NREC   LENGTH (MB)   RECORD NAMES
              1      19       22.15       500      610      700      900      950      970     1000      129      960     1100   
                                          VAR    BASINP    GEOM    SYMINP    ZMAT    AOBASIS   BASIS     P2S    ABASIS      S 
                                         1400     1410     1200     1210     1080     1600     1650     1300     1700   
                                           T        V       H0       H01     AOSYM     SMH    MOLCAS    ERIS     OPER   

 PROGRAMS   *        TOTAL       INT
 CPU TIMES  *         0.46      0.34
 REAL TIME  *         0.96 SEC
 DISK USED  *        32.34 MB      
 **********************************************************************************************************************************

1PROGRAM * RHF-SCF (CLOSED SHELL)       Authors: W. Meyer, H.-J. Werner


 NUMBER OF ELECTRONS:       5+    5-
 CONVERGENCE THRESHOLDS:    1.00E-10 (Density)    1.00E-11 (Energy)
 MAX. NUMBER OF ITERATIONS:       60
 INTERPOLATION TYPE:            DIIS
 INTERPOLATION STEPS:              2 (START)      1 (STEP)
 LEVEL SHIFTS:                  0.00 (CLOSED)  0.00 (OPEN) 



 Orbital guess generated from atomic densities. Full valence occupancy:    4   1   2   0

 Molecular orbital dump at record        2100.2

 Initial occupancy:   3   1   1   0

 ITERATION    DDIFF          GRAD             ENERGY        2-EL.EN.            DIPOLE MOMENTS         DIIS   ORB.
    1      0.000D+00      0.000D+00       -76.01595412     77.471167    0.00000    0.00000    1.17148    0    start
    2      0.000D+00      0.235D-01       -76.04391023     73.974206    0.00000    0.00000    0.71030    1    diag
    3      0.327D-01      0.143D-01       -76.05443145     75.475419    0.00000    0.00000    0.81482    2    diag
    4      0.110D-01      0.136D-02       -76.05463436     75.394655    0.00000    0.00000    0.80817    3    diag
    5      0.163D-02      0.397D-03       -76.05465733     75.406794    0.00000    0.00000    0.80492    4    diag
    6      0.589D-03      0.766D-04       -76.05465857     75.405189    0.00000    0.00000    0.80408    5    diag
    7      0.138D-03      0.132D-04       -76.05465860     75.405316    0.00000    0.00000    0.80391    6    diag
    8      0.278D-04      0.191D-05       -76.05465861     75.405281    0.00000    0.00000    0.80388    7    diag
    9      0.384D-05      0.195D-06       -76.05465861     75.405277    0.00000    0.00000    0.80388    8    diag
   10      0.423D-06      0.474D-07       -76.05465861     75.405279    0.00000    0.00000    0.80388    9    orth
   11      0.104D-06      0.848D-08       -76.05465861     75.405278    0.00000    0.00000    0.80388    9    diag
   12      0.188D-07      0.135D-08       -76.05465861     75.405278    0.00000    0.00000    0.80388    9    diag
   13      0.362D-08      0.366D-09       -76.05465861     75.405278    0.00000    0.00000    0.80388    9    diag
   14      0.966D-09      0.454D-10       -76.05465861     75.405278    0.00000    0.00000    0.80388    9    diag
   15      0.758D-10      0.616D-11       -76.05465861     75.405278    0.00000    0.00000    0.80388    0    orth

 Final occupancy:   3   1   1   0

 !RHF STATE 1.1 Energy                -76.054658605321
 Nuclear energy                         8.98108732
 One-electron energy                 -122.73838508
 Two-electron energy                   37.70263916
 Virial quotient                       -1.00178386
 !RHF STATE 1.1 Dipole moment           0.00000000     0.00000000     0.80387836
 Dipole moment /Debye                   0.00000000     0.00000000     2.04312116

 Orbital energies:

         1.1          2.1          3.1          4.1          5.1
    -20.558729    -1.334219    -0.573423     0.139805     0.588722

         1.2          2.2          3.2
     -0.502698     0.786947     0.952931

         1.3          2.3          3.3
     -0.697484     0.201894     0.534762

         1.4          2.4
      0.856366     2.056936

 HOMO      1.2    -0.502698 =     -13.6791eV
 LUMO      4.1     0.139805 =       3.8043eV
 LUMO-HOMO         0.642503 =      17.4834eV


 **********************************************************************************************************************************
 DATASETS  * FILE   NREC   LENGTH (MB)   RECORD NAMES
              1      19       22.15       500      610      700      900      950      970     1000      129      960     1100   
                                          VAR    BASINP    GEOM    SYMINP    ZMAT    AOBASIS   BASIS     P2S    ABASIS      S 
                                         1400     1410     1200     1210     1080     1600     1650     1300     1700   
                                           T        V       H0       H01     AOSYM     SMH    MOLCAS    ERIS     OPER   

              2       4        0.40       700     1000      520     2100   
                                         GEOM     BASIS   MCVARS     RHF  

 PROGRAMS   *        TOTAL       RHF       INT
 CPU TIMES  *         0.49      0.03      0.34
 REAL TIME  *         1.00 SEC
 DISK USED  *        32.34 MB      
 **********************************************************************************************************************************


1PROGRAM * CCSD (Closed-shell coupled cluster)     Authors: C. Hampel, H.-J. Werner, 1991, M. Deegan, P.J. Knowles, 1992


 Convergence thresholds:  THRVAR = 1.00D-14  THRDEN = 1.00D-10

 CCSD(T)     terms to be evaluated (factor= 1.000)


 Number of core orbitals:           1 (   1   0   0   0 )
 Number of closed-shell orbitals:   4 (   2   1   1   0 )
 Number of external orbitals:      53 (  20  10  16   7 )

 Molecular orbitals read from record     2100.2  Type=RHF/CANONICAL (state 1.1)

 Number of N-1 electron functions:               4
 Number of N-2 electron functions:              10
 Number of singly external CSFs:                66
 Number of doubly external CSFs:              5929
 Total number of CSFs:                        5996

 Length of J-op  integral file:               0.00 MB
 Length of K-op  integral file:               0.10 MB
 Length of 3-ext integral record:             0.00 MB

 Memory could be reduced to 0.56 Mwords without degradation in triples

 Integral transformation finished. Total CPU:   0.01 sec, npass=  1  Memory used:   0.12 MW

 Reference energy:                    -76.05465861

 MP2 singlet pair energy:              -0.16734497
 MP2 triplet pair energy:              -0.09577764
 MP2 correlation energy:               -0.26312260
 MP2 total energy:                    -76.31778121

 SCS-MP2 correlation energy:           -0.26040893   (PS=  1.200000  PT=  0.333333)
 SCS-MP2 total energy:                -76.31506754

 ITER.      SQ.NORM     CORR.ENERGY   TOTAL ENERGY   ENERGY CHANGE        DEN1      VAR(S)    VAR(P)  DIIS     TIME  TIME/IT
   1      1.06184339    -0.26836267   -76.32302127    -0.00524007    -0.00003837  0.48D-03  0.87D-03  1  1     0.01     0.01
   2      1.06517825    -0.26880549   -76.32346410    -0.00044282    -0.00464236  0.85D-05  0.96D-04  2  2     0.02     0.01
   3      1.06632614    -0.26887760   -76.32353621    -0.00007211    -0.00088280  0.18D-05  0.45D-05  3  3     0.03     0.01
   4      1.06663123    -0.26888954   -76.32354815    -0.00001194    -0.00017766  0.14D-06  0.24D-06  4  4     0.03     0.01
   5      1.06667446    -0.26888678   -76.32354538     0.00000277    -0.00002103  0.48D-07  0.14D-07  5  5     0.04     0.01
   6      1.06668227    -0.26888664   -76.32354525     0.00000014    -0.00000203  0.71D-08  0.16D-08  6  6     0.05     0.01
   7      1.06668445    -0.26888679   -76.32354539    -0.00000014    -0.00000037  0.10D-08  0.22D-09  6  1     0.05     0.01
   8      1.06668522    -0.26888680   -76.32354541    -0.00000001     0.00000050  0.37D-10  0.17D-10  6  2     0.06     0.01
   9      1.06668547    -0.26888678   -76.32354539     0.00000002    -0.00000009  0.17D-11  0.16D-11  6  3     0.07     0.01
  10      1.06668552    -0.26888677   -76.32354538     0.00000001     0.00000003  0.55D-13  0.86D-13  6  4     0.07     0.01
  11      1.06668553    -0.26888677   -76.32354538     0.00000000    -0.00000001  0.23D-14  0.64D-14  6  5     0.08     0.01
  12      1.06668552    -0.26888677   -76.32354538    -0.00000000     0.00000000  0.20D-15  0.46D-15  6  6     0.09     0.01
  13      1.06668552    -0.26888677   -76.32354538    -0.00000000     0.00000000  0.44D-16  0.38D-16  6  1     0.09     0.01
  14      1.06668552    -0.26888677   -76.32354538    -0.00000000     0.00000000  0.84D-17  0.40D-17  6  2     0.10     0.01

 Norm of t1 vector:      0.02728403      S-energy:     0.00000000      T1 diagnostic:  0.00682101
                                                                       D1 diagnostic:  0.01134756


 Total CPU time for triples:      0.02 sec


 RESULTS
 =======

  Reference energy                    -76.054658605321
  CCSD singlet pair energy             -0.183831778412
  CCSD triplet pair energy             -0.085054996314
  CCSD correlation energy              -0.268886774689

  Triples (T) contribution             -0.007834004648
  Total correlation energy             -0.276720779337

  CCSD total energy                   -76.323545380010
  CCSD[T] energy                      -76.331583091053
  CCSD-T energy                       -76.331235403864
 !CCSD(T) total energy                -76.331379384658

 Timing summary (sec):

 STEP                 CPU(USER)    SYS     CPU(TOT)    WALL
 Transformation          0.01      0.00      0.01      0.01
 CCSD iterations         0.09      0.02      0.11      0.12
 Triples                 0.02      0.01      0.03      0.02

 Program statistics:

 Available memory in ccsd:               999999836
 Min. memory needed in ccsd:                 31875
 Max. memory used in ccsd:                   36141
 Max. memory used in cckext:                 65678 (14 integral passes)



 **********************************************************************************************************************************
 DATASETS  * FILE   NREC   LENGTH (MB)   RECORD NAMES
              1      20       22.92       500      610      700      900      950      970     1000      129      960     1100   
                                          VAR    BASINP    GEOM    SYMINP    ZMAT    AOBASIS   BASIS     P2S    ABASIS      S 
                                         1400     1410     1200     1210     1080     1600     1650     1300     1700     1380   
                                           T        V       H0       H01     AOSYM     SMH    MOLCAS    ERIS     OPER     JKOP   

              2       4        0.40       700     1000      520     2100   
                                         GEOM     BASIS   MCVARS     RHF  

 PROGRAMS   *        TOTAL   CCSD(T)       RHF       INT
 CPU TIMES  *         0.64      0.15      0.03      0.34
 REAL TIME  *         1.18 SEC
 DISK USED  *        32.34 MB      
 **********************************************************************************************************************************


 PROGRAM * OPT (Geometry optimization)     Authors: F. Eckert and H.-J. Werner


 BFGS update of hessian

 Running default procedure: RHF-SCF000  CCSD(T)

 Geometry optimization using default procedure for command CCSD(T)

 Geometry written to block  1 of record 700
 

 Number of displacements for numerical gradient:      4

 Starting task   4 Incrementing variable A1       by  -1.00000 DEG to  103.50000 DEG. CPU=    0.00 sec, Elapsed=    0.00 sec


 Recomputing integrals since geometry changed

1PROGRAM * SEWARD (Integral evaluation for generally contracted gaussian basis sets)     Author: Roland Lindh, 1990

 Geometry written to block  1 of record 700

 Orientation using atomic masses  
 Molecule type: Asymmetric top,     Order of principal axis = 2
 Symmetry elements: X,Y
 Rotational constants:     272.7329716    766.8749697    423.2631312 GHz  (calculated with average atomic masses)

 Point group  C2v 



 ATOMIC COORDINATES

 NR  ATOM    CHARGE       X              Y              Z

   1  O       8.00    0.000000000    0.000000000   -0.128293650
   2  H       1.00    0.000000000    1.454353242    1.018225999
   3  H       1.00    0.000000000   -1.454353242    1.018225999

 Bond lengths in Bohr (Angstrom)

 1-2  1.851931602  1-3  1.851931602
     ( 0.980000000)     ( 0.980000000)

 Bond angles

  2-1-3  103.50000000

 NUCLEAR CHARGE:                   10
 NUMBER OF PRIMITIVE AOS:          81
 NUMBER OF SYMMETRY AOS:           74
 NUMBER OF CONTRACTIONS:           58   (  23A1  +  11B1  +  17B2  +   7A2  )
 NUMBER OF CORE ORBITALS:           1   (   1A1  +   0B1  +   0B2  +   0A2  )
 NUMBER OF VALENCE ORBITALS:        6   (   3A1  +   1B1  +   2B2  +   0A2  )


 NUCLEAR REPULSION ENERGY    8.98342336

 Eigenvalues of metric

         1 0.272E-02 0.624E-02 0.115E-01 0.436E-01 0.871E-01 0.117E+00 0.177E+00 0.274E+00
         2 0.415E-01 0.113E+00 0.259E+00 0.453E+00 0.535E+00 0.719E+00 0.110E+01 0.133E+01
         3 0.492E-02 0.852E-02 0.485E-01 0.721E-01 0.963E-01 0.181E+00 0.282E+00 0.341E+00
         4 0.125E+00 0.326E+00 0.552E+00 0.894E+00 0.121E+01 0.132E+01 0.228E+01


 Contracted 2-electron integrals neglected if value below      1.0D-14
 AO integral compression algorithm  1   Integral accuracy      1.0D-14

     4.456 MB (compressed) written to integral file (100.0%)


 NUMBER OF SORTED TWO-ELECTRON INTEGRALS:     396151.     BUFFER LENGTH:  32768
 NUMBER OF SEGMENTS:   1  SEGMENT LENGTH:     396151      RECORD LENGTH: 524288

 Memory used in sort:       0.95 MW

 SORT1 READ      562034. AND WROTE      366996. INTEGRALS IN      2 RECORDS. CPU TIME:     0.01 SEC, REAL TIME:     0.02 SEC
 SORT2 READ      366996. AND WROTE      396151. INTEGRALS IN     17 RECORDS. CPU TIME:     0.02 SEC, REAL TIME:     0.04 SEC

 FILE SIZES:   FILE 1:    23.6 MBYTE,  FILE 4:     8.4 MBYTE,   TOTAL:     32.0 MBYTE

 OPERATOR DM      FOR CENTER  0  COORDINATES:    0.000000    0.000000    0.000000
1PROGRAM * RHF-SCF (CLOSED SHELL)       Authors: W. Meyer, H.-J. Werner


 NUMBER OF ELECTRONS:       5+    5-
 CONVERGENCE THRESHOLDS:    1.00E-10 (Density)    1.00E-11 (Energy)
 MAX. NUMBER OF ITERATIONS:       60
 INTERPOLATION TYPE:            DIIS
 INTERPOLATION STEPS:              2 (START)      1 (STEP)
 LEVEL SHIFTS:                  0.00 (CLOSED)  0.00 (OPEN) 

 Number of closed-shell orbitals:    5 (   3   1   1   0 )


 Molecular orbitals read from record     2100.2  Type=RHF/CANONICAL (state 1.1)

 Molecular orbital dump at record        2100.1

 ITERATION    DDIFF          GRAD             ENERGY        2-EL.EN.            DIPOLE MOMENTS         DIIS   ORB.
    1      0.000D+00      0.000D+00       -76.05461593     75.405161    0.00000    0.00000    0.81075    0    start
    2      0.000D+00      0.392D-03       -76.05462676     75.402200    0.00000    0.00000    0.81064    1    diag
    3      0.788D-03      0.719D-04       -76.05462744     75.404056    0.00000    0.00000    0.81051    2    diag
    4      0.153D-03      0.154D-04       -76.05462747     75.402307    0.00000    0.00000    0.81025    3    diag
    5      0.292D-04      0.807D-05       -76.05462747     75.403013    0.00000    0.00000    0.81024    4    diag
    6      0.100D-04      0.127D-05       -76.05462747     75.402971    0.00000    0.00000    0.81020    5    diag
    7      0.254D-05      0.292D-06       -76.05462747     75.402974    0.00000    0.00000    0.81020    6    diag
    8      0.655D-06      0.495D-07       -76.05462747     75.402973    0.00000    0.00000    0.81020    7    orth
    9      0.118D-06      0.109D-07       -76.05462747     75.402973    0.00000    0.00000    0.81020    8    diag
   10      0.213D-07      0.149D-08       -76.05462747     75.402973    0.00000    0.00000    0.81020    9    diag
   11      0.311D-08      0.275D-09       -76.05462747     75.402973    0.00000    0.00000    0.81020    9    diag
   12      0.565D-09      0.444D-10       -76.05462747     75.402973    0.00000    0.00000    0.81020    9    diag
   13      0.875D-10      0.412D-11       -76.05462747     75.402973    0.00000    0.00000    0.81020    0    orth

 Final occupancy:   3   1   1   0

 !RHF STATE 1.1 Energy                -76.054627474616
 Nuclear energy                         8.98342336
 One-electron energy                 -122.73953750
 Two-electron energy                   37.70148666
 Virial quotient                       -1.00176120
 !RHF STATE 1.1 Dipole moment           0.00000000     0.00000000     0.81019759
 Dipole moment /Debye                   0.00000000     0.00000000     2.05918200

 Orbital energies:

         1.1          2.1          3.1          4.1          5.1
    -20.559243    -1.334951    -0.575392     0.139638     0.592262

         1.2          2.2          3.2
     -0.503045     0.786717     0.948804

         1.3          2.3          3.3
     -0.695651     0.202078     0.533064

         1.4          2.4
      0.858494     2.054719

 HOMO      1.2    -0.503045 =     -13.6885eV
 LUMO      4.1     0.139638 =       3.7998eV
 LUMO-HOMO         0.642683 =      17.4883eV


 **********************************************************************************************************************************
 DATASETS  * FILE   NREC   LENGTH (MB)   RECORD NAMES
              1      20       22.27       500      610      700      900      950      970     1000      129      960     1100   
                                          VAR    BASINP    GEOM    SYMINP    ZMAT    AOBASIS   BASIS     P2S    ABASIS      S 
                                         1400     1410     1200     1210     1080     1600     1650     1300     1700     2100   
                                           T        V       H0       H01     AOSYM     SMH    MOLCAS    ERIS     OPER      RHF  

              2       5        0.43       700     1000      520     2100     5600   
                                         GEOM     BASIS   MCVARS     RHF     GINFO   

 PROGRAMS   *        TOTAL       RHF   CCSD(T)       RHF       INT
 CPU TIMES  *         0.94      0.28      0.15      0.03      0.34
 REAL TIME  *         1.52 SEC
 DISK USED  *        32.52 MB      
 **********************************************************************************************************************************


1PROGRAM * CCSD (Closed-shell coupled cluster)     Authors: C. Hampel, H.-J. Werner, 1991, M. Deegan, P.J. Knowles, 1992


 Convergence thresholds:  THRVAR = 1.00D-14  THRDEN = 1.00D-10

 CCSD(T)     terms to be evaluated (factor= 1.000)


 Number of core orbitals:           1 (   1   0   0   0 )
 Number of closed-shell orbitals:   4 (   2   1   1   0 )
 Number of external orbitals:      53 (  20  10  16   7 )

 Molecular orbitals read from record     2100.1  Type=RHF/CANONICAL (state 1.1)

 Number of N-1 electron functions:               4
 Number of N-2 electron functions:              10
 Number of singly external CSFs:                66
 Number of doubly external CSFs:              5929
 Total number of CSFs:                        5996

 Length of J-op  integral file:               0.00 MB
 Length of K-op  integral file:               0.10 MB
 Length of 3-ext integral record:             0.00 MB

 Memory could be reduced to 0.56 Mwords without degradation in triples

 Integral transformation finished. Total CPU:   0.01 sec, npass=  1  Memory used:   0.12 MW

 Reference energy:                    -76.05462747

 MP2 singlet pair energy:              -0.16740225
 MP2 triplet pair energy:              -0.09582040
 MP2 correlation energy:               -0.26322265
 MP2 total energy:                    -76.31785013

 SCS-MP2 correlation energy:           -0.26050429   (PS=  1.200000  PT=  0.333333)
 SCS-MP2 total energy:                -76.31513176

 ITER.      SQ.NORM     CORR.ENERGY   TOTAL ENERGY   ENERGY CHANGE        DEN1      VAR(S)    VAR(P)  DIIS     TIME  TIME/IT
   1      1.06188693    -0.26844811   -76.32307559    -0.00522546    -0.00001359  0.48D-03  0.88D-03  1  1     0.02     0.01
   2      1.06522815    -0.26888994   -76.32351741    -0.00044183    -0.00464906  0.85D-05  0.96D-04  2  2     0.02     0.01
   3      1.06637958    -0.26896219   -76.32358967    -0.00007225    -0.00088467  0.18D-05  0.46D-05  3  3     0.03     0.01
   4      1.06668603    -0.26897409   -76.32360156    -0.00001190    -0.00017832  0.14D-06  0.24D-06  4  4     0.03     0.01
   5      1.06672925    -0.26897132   -76.32359879     0.00000277    -0.00002104  0.47D-07  0.14D-07  5  5     0.04     0.01
   6      1.06673702    -0.26897117   -76.32359864     0.00000015    -0.00000204  0.69D-08  0.16D-08  6  6     0.05     0.01
   7      1.06673914    -0.26897131   -76.32359879    -0.00000014    -0.00000036  0.10D-08  0.22D-09  6  1     0.05     0.01
   8      1.06673990    -0.26897133   -76.32359880    -0.00000001     0.00000049  0.37D-10  0.17D-10  6  2     0.06     0.01
   9      1.06674015    -0.26897131   -76.32359878     0.00000002    -0.00000009  0.16D-11  0.16D-11  6  3     0.07     0.01
  10      1.06674019    -0.26897130   -76.32359877     0.00000001     0.00000003  0.53D-13  0.85D-13  6  4     0.07     0.01
  11      1.06674020    -0.26897130   -76.32359877     0.00000000    -0.00000001  0.20D-14  0.64D-14  6  5     0.08     0.01
  12      1.06674020    -0.26897130   -76.32359877    -0.00000000     0.00000000  0.18D-15  0.46D-15  6  6     0.08     0.01
  13      1.06674020    -0.26897130   -76.32359877    -0.00000000     0.00000000  0.43D-16  0.38D-16  6  1     0.09     0.01
  14      1.06674020    -0.26897130   -76.32359877    -0.00000000     0.00000000  0.82D-17  0.40D-17  6  2     0.10     0.01

 Norm of t1 vector:      0.02737373      S-energy:     0.00000000      T1 diagnostic:  0.00684343
                                                                       D1 diagnostic:  0.01135961

 Total CPU time for triples:      0.02 sec


 RESULTS
 =======

  Reference energy                    -76.054627474616
  CCSD singlet pair energy             -0.183890276191
  CCSD triplet pair energy             -0.085081023972
  CCSD correlation energy              -0.268971300127

  Triples (T) contribution             -0.007845232047
  Total correlation energy             -0.276816532174

  CCSD total energy                   -76.323598774743
  CCSD[T] energy                      -76.331648618894
  CCSD-T energy                       -76.331299526051
 !CCSD(T) total energy                -76.331444006790

 Timing summary (sec):

 STEP                 CPU(USER)    SYS     CPU(TOT)    WALL
 Transformation          0.01      0.00      0.01      0.01
 CCSD iterations         0.09      0.01      0.10      0.11
 Triples                 0.02      0.00      0.02      0.02

 Program statistics:

 Available memory in ccsd:               999998800
 Min. memory needed in ccsd:                 31875
 Max. memory used in ccsd:                   36141
 Max. memory used in cckext:                 65678 (14 integral passes)



 **********************************************************************************************************************************
 DATASETS  * FILE   NREC   LENGTH (MB)   RECORD NAMES
              1      21       23.07       500      610      700      900      950      970     1000      129      960     1100   
                                          VAR    BASINP    GEOM    SYMINP    ZMAT    AOBASIS   BASIS     P2S    ABASIS      S 
                                         1400     1410     1200     1210     1080     1600     1650     1300     1700     2100   
                                           T        V       H0       H01     AOSYM     SMH    MOLCAS    ERIS     OPER      RHF  
                                         1380   
                                         JKOP   

              2       5        0.43       700     1000      520     2100     5600   
                                         GEOM     BASIS   MCVARS     RHF     GINFO   

 PROGRAMS   *        TOTAL   CCSD(T)   CCSD(T)       RHF       INT
 CPU TIMES  *         1.08      0.13      0.15      0.03      0.34
 REAL TIME  *         1.68 SEC
 DISK USED  *        32.52 MB      
 **********************************************************************************************************************************

 Tasks on processor    0 finished.  CPU=      0.49 sec, Elapsed=      0.50 sec. Waiting for other processors...
 Tasks on   7 processors finished.  CPU=      7.15 sec, Elapsed=      1.00 sec

 Numerical gradient for CCSD(T)

 Total Energy           -76.33137938  Dipole moments:    0.000000    0.000000    0.000000

 Variable       Value            Gradient       Hessian                Dipole gradient
 R1             0.980 ANG      0.07542395     3.31933406      0.000000    0.000000    0.000000

 Variable       Value            Gradient       Hessian                Dipole gradient
 A1           104.500 DEG      0.00008911     0.00004898      0.000000    0.000000    0.000000
 Reading points  1 to  1 from record 700.2,  wavefunction type=CCSD(T)         

 Making model hessian for Z-matrix coordinates
 No hessian update for point  1

 Entering Rational Function Geometry Optimization

 Optimization point 1

 Variable                      Last           Current        Next           Gradient       Hessian

 E(CCSD(T)) / Hartree        0.00000000   -76.33137938   -76.33203893
 R1 / ANGSTROM               0.00000000     0.98000000     0.96410581     0.07542395     4.73808314
 A1 / DEGREE                 0.00000000   104.50000000   103.17147839     0.00008911     0.00006630
 Convergence:                0.00000000  (line search)     0.03794445     0.04023789  (total)

 Geometry written to block  2 of record 700


 Recomputing integrals since geometry changed

1PROGRAM * SEWARD (Integral evaluation for generally contracted gaussian basis sets)     Author: Roland Lindh, 1990

 Geometry written to block  2 of record 700

 Orientation using atomic masses  
 Molecule type: Asymmetric top,     Order of principal axis = 2
 Symmetry elements: X,Y
 Rotational constants:     281.8915477    786.6433206    439.3210980 GHz  (calculated with average atomic masses)

 Point group  C2v 



 ATOMIC COORDINATES

 NR  ATOM    CHARGE       X              Y              Z

   1  O       8.00    0.000000000    0.000000000   -0.126671383
   2  H       1.00    0.000000000    1.427526218    1.005350582
   3  H       1.00    0.000000000   -1.427526218    1.005350582

 Bond lengths in Bohr (Angstrom)

 1-2  1.821895945  1-3  1.821895945
     ( 0.964105815)     ( 0.964105815)

 Bond angles

  2-1-3  103.17147839

 NUCLEAR CHARGE:                   10
 NUMBER OF PRIMITIVE AOS:          81
 NUMBER OF SYMMETRY AOS:           74
 NUMBER OF CONTRACTIONS:           58   (  23A1  +  11B1  +  17B2  +   7A2  )
 NUMBER OF CORE ORBITALS:           1   (   1A1  +   0B1  +   0B2  +   0A2  )
 NUMBER OF VALENCE ORBITALS:        6   (   3A1  +   1B1  +   2B2  +   0A2  )


 NUCLEAR REPULSION ENERGY    9.13231654

 Eigenvalues of metric

         1 0.262E-02 0.591E-02 0.110E-01 0.424E-01 0.847E-01 0.114E+00 0.169E+00 0.271E+00
         2 0.406E-01 0.110E+00 0.248E+00 0.449E+00 0.528E+00 0.706E+00 0.110E+01 0.134E+01
         3 0.479E-02 0.781E-02 0.482E-01 0.696E-01 0.930E-01 0.172E+00 0.278E+00 0.327E+00
         4 0.118E+00 0.318E+00 0.542E+00 0.883E+00 0.121E+01 0.132E+01 0.229E+01


 Contracted 2-electron integrals neglected if value below      1.0D-14
 AO integral compression algorithm  1   Integral accuracy      1.0D-14

     4.456 MB (compressed) written to integral file (100.0%)


 NUMBER OF SORTED TWO-ELECTRON INTEGRALS:     396151.     BUFFER LENGTH:  32768
 NUMBER OF SEGMENTS:   1  SEGMENT LENGTH:     396151      RECORD LENGTH: 524288

 Memory used in sort:       0.95 MW

 SORT1 READ      562034. AND WROTE      366996. INTEGRALS IN      2 RECORDS. CPU TIME:     0.01 SEC, REAL TIME:     0.01 SEC
 SORT2 READ      366996. AND WROTE      396151. INTEGRALS IN     17 RECORDS. CPU TIME:     0.03 SEC, REAL TIME:     0.04 SEC

 FILE SIZES:   FILE 1:    23.6 MBYTE,  FILE 4:     8.4 MBYTE,   TOTAL:     32.0 MBYTE

 OPERATOR DM      FOR CENTER  0  COORDINATES:    0.000000    0.000000    0.000000
1PROGRAM * RHF-SCF (CLOSED SHELL)       Authors: W. Meyer, H.-J. Werner


 NUMBER OF ELECTRONS:       5+    5-
 CONVERGENCE THRESHOLDS:    1.00E-10 (Density)    1.00E-11 (Energy)
 MAX. NUMBER OF ITERATIONS:       60
 INTERPOLATION TYPE:            DIIS
 INTERPOLATION STEPS:              2 (START)      1 (STEP)
 LEVEL SHIFTS:                  0.00 (CLOSED)  0.00 (OPEN) 

 Number of closed-shell orbitals:    5 (   3   1   1   0 )


 Molecular orbitals read from record     2100.2  Type=RHF/CANONICAL (state 1.1)

 Molecular orbital dump at record        2100.2

 ITERATION    DDIFF          GRAD             ENERGY        2-EL.EN.            DIPOLE MOMENTS         DIIS   ORB.
    1      0.000D+00      0.000D+00       -76.05637176     75.549724    0.00000    0.00000    0.80198    0    start
    2      0.000D+00      0.155D-02       -76.05650548     75.668125    0.00000    0.00000    0.80514    1    diag
    3      0.340D-02      0.459D-03       -76.05651592     75.611175    0.00000    0.00000    0.80443    2    diag
    4      0.621D-03      0.191D-03       -76.05651838     75.632213    0.00000    0.00000    0.80667    3    diag
    5      0.191D-03      0.330D-04       -76.05651857     75.630722    0.00000    0.00000    0.80700    4    diag
    6      0.517D-04      0.939D-05       -76.05651859     75.630843    0.00000    0.00000    0.80724    5    diag
    7      0.198D-04      0.174D-05       -76.05651860     75.630844    0.00000    0.00000    0.80726    6    diag
    8      0.418D-05      0.214D-06       -76.05651860     75.630842    0.00000    0.00000    0.80726    7    orth
    9      0.454D-06      0.281D-07       -76.05651860     75.630842    0.00000    0.00000    0.80726    8    diag
   10      0.683D-07      0.508D-08       -76.05651860     75.630842    0.00000    0.00000    0.80726    9    diag
   11      0.113D-07      0.628D-09       -76.05651860     75.630842    0.00000    0.00000    0.80726    9    diag
   12      0.143D-08      0.102D-09       -76.05651860     75.630842    0.00000    0.00000    0.80726    9    diag
   13      0.285D-09      0.119D-10       -76.05651860     75.630842    0.00000    0.00000    0.80726    9    diag
   14      0.226D-10      0.224D-11       -76.05651860     75.630842    0.00000    0.00000    0.80726    0    orth

 Final occupancy:   3   1   1   0

 !RHF STATE 1.1 Energy                -76.056518595232
 Nuclear energy                         9.13231654
 One-electron energy                 -123.00425628
 Two-electron energy                   37.81542115
 Virial quotient                       -1.00099229
 !RHF STATE 1.1 Dipole moment           0.00000000     0.00000000     0.80726021
 Dipole moment /Debye                   0.00000000     0.00000000     2.05171641

 Orbital energies:

         1.1          2.1          3.1          4.1          5.1
    -20.556619    -1.343149    -0.579080     0.141296     0.603015

         1.2          2.2          3.2
     -0.504372     0.787085     0.948876

         1.3          2.3          3.3
     -0.703487     0.203694     0.539128

         1.4          2.4
      0.862547     2.060412

 HOMO      1.2    -0.504372 =     -13.7247eV
 LUMO      4.1     0.141296 =       3.8449eV
 LUMO-HOMO         0.645668 =      17.5695eV


 **********************************************************************************************************************************
 DATASETS  * FILE   NREC   LENGTH (MB)   RECORD NAMES
              1      19       22.15       500      610      700      900      950      970     1000      129      960     1100   
                                          VAR    BASINP    GEOM    SYMINP    ZMAT    AOBASIS   BASIS     P2S    ABASIS      S 
                                         1400     1410     1200     1210     1080     1600     1650     1300     1700   
                                           T        V       H0       H01     AOSYM     SMH    MOLCAS    ERIS     OPER   

              2       5        0.43       700     1000      520     2100     5600   
                                         GEOM     BASIS   MCVARS     RHF     GINFO   

 PROGRAMS   *        TOTAL       RHF   CCSD(T)       RHF       INT
 CPU TIMES  *         1.96      0.36      0.15      0.03      0.34
 REAL TIME  *         2.61 SEC
 DISK USED  *        32.52 MB      
 **********************************************************************************************************************************


1PROGRAM * CCSD (Closed-shell coupled cluster)     Authors: C. Hampel, H.-J. Werner, 1991, M. Deegan, P.J. Knowles, 1992


 Convergence thresholds:  THRVAR = 1.00D-14  THRDEN = 1.00D-10

 CCSD(T)     terms to be evaluated (factor= 1.000)


 Number of core orbitals:           1 (   1   0   0   0 )
 Number of closed-shell orbitals:   4 (   2   1   1   0 )
 Number of external orbitals:      53 (  20  10  16   7 )

 Molecular orbitals read from record     2100.2  Type=RHF/CANONICAL (state 1.1)

 Number of N-1 electron functions:               4
 Number of N-2 electron functions:              10
 Number of singly external CSFs:                66
 Number of doubly external CSFs:              5929
 Total number of CSFs:                        5996

 Length of J-op  integral file:               0.00 MB
 Length of K-op  integral file:               0.10 MB
 Length of 3-ext integral record:             0.00 MB

 Memory could be reduced to 0.56 Mwords without degradation in triples

 Integral transformation finished. Total CPU:   0.01 sec, npass=  1  Memory used:   0.12 MW

 Reference energy:                    -76.05651860

 MP2 singlet pair energy:              -0.16662221
 MP2 triplet pair energy:              -0.09546936
 MP2 correlation energy:               -0.26209156
 MP2 total energy:                    -76.31861016

 SCS-MP2 correlation energy:           -0.25934980   (PS=  1.200000  PT=  0.333333)
 SCS-MP2 total energy:                -76.31586840

 ITER.      SQ.NORM     CORR.ENERGY   TOTAL ENERGY   ENERGY CHANGE        DEN1      VAR(S)    VAR(P)  DIIS     TIME  TIME/IT
   1      1.06093015    -0.26744571   -76.32396430    -0.00535414    -0.00030809  0.46D-03  0.83D-03  1  1     0.01     0.01
   2      1.06412023    -0.26786924   -76.32438784    -0.00042353    -0.00452353  0.78D-05  0.89D-04  2  2     0.02     0.01
   3      1.06517962    -0.26793363   -76.32445222    -0.00006439    -0.00083179  0.16D-05  0.41D-05  3  3     0.03     0.01
   4      1.06545749    -0.26794415   -76.32446274    -0.00001052    -0.00016564  0.11D-06  0.21D-06  4  4     0.03     0.01
   5      1.06549517    -0.26794149   -76.32446009     0.00000265    -0.00001911  0.37D-07  0.12D-07  5  5     0.04     0.01
   6      1.06550154    -0.26794134   -76.32445994     0.00000015    -0.00000179  0.56D-08  0.13D-08  6  6     0.05     0.01
   7      1.06550326    -0.26794147   -76.32446007    -0.00000013    -0.00000032  0.86D-09  0.17D-09  6  1     0.05     0.01
   8      1.06550390    -0.26794148   -76.32446008    -0.00000001     0.00000043  0.31D-10  0.13D-10  6  2     0.06     0.01
   9      1.06550408    -0.26794147   -76.32446006     0.00000001    -0.00000006  0.19D-11  0.13D-11  6  6     0.07     0.01
  10      1.06550414    -0.26794146   -76.32446006     0.00000001     0.00000001  0.27D-13  0.61D-13  6  3     0.07     0.01
  11      1.06550415    -0.26794146   -76.32446006     0.00000000    -0.00000001  0.15D-14  0.27D-14  6  4     0.08     0.01
  12      1.06550415    -0.26794146   -76.32446006     0.00000000    -0.00000000  0.10D-15  0.17D-15  6  5     0.09     0.01
  13      1.06550415    -0.26794146   -76.32446006     0.00000000    -0.00000000  0.51D-17  0.13D-16  6  1     0.10     0.01
  14      1.06550415    -0.26794146   -76.32446006     0.00000000    -0.00000000  0.77D-18  0.11D-17  6  2     0.10     0.01

 Norm of t1 vector:      0.02652959      S-energy:    -0.00000000      T1 diagnostic:  0.00663240
                                                                       D1 diagnostic:  0.01095539

 Total CPU time for triples:      0.02 sec


 RESULTS
 =======

  Reference energy                    -76.056518595232
  CCSD singlet pair energy             -0.182903015820
  CCSD triplet pair energy             -0.085038444978
  CCSD correlation energy              -0.267941460811

  Triples (T) contribution             -0.007714733746
  Total correlation energy             -0.275656194557

  CCSD total energy                   -76.324460056043
  CCSD[T] energy                      -76.332371256171
  CCSD-T energy                       -76.332035855796
 !CCSD(T) total energy                -76.332174789788

 Timing summary (sec):

 STEP                 CPU(USER)    SYS     CPU(TOT)    WALL
 Transformation          0.01      0.00      0.01      0.01
 CCSD iterations         0.09      0.01      0.10      0.11
 Triples                 0.02      0.00      0.02      0.02

 Program statistics:

 Available memory in ccsd:               999998927
 Min. memory needed in ccsd:                 31875
 Max. memory used in ccsd:                   36141
 Max. memory used in cckext:                 65678 (14 integral passes)



 **********************************************************************************************************************************
 DATASETS  * FILE   NREC   LENGTH (MB)   RECORD NAMES
              1      20       22.92       500      610      700      900      950      970     1000      129      960     1100   
                                          VAR    BASINP    GEOM    SYMINP    ZMAT    AOBASIS   BASIS     P2S    ABASIS      S 
                                         1400     1410     1200     1210     1080     1600     1650     1300     1700     1380   
                                           T        V       H0       H01     AOSYM     SMH    MOLCAS    ERIS     OPER     JKOP   

              2       5        0.43       700     1000      520     2100     5600   
                                         GEOM     BASIS   MCVARS     RHF     GINFO   

 PROGRAMS   *        TOTAL   CCSD(T)   CCSD(T)       RHF       INT
 CPU TIMES  *         2.11      0.16      0.15      0.03      0.34
 REAL TIME  *         2.78 SEC
 DISK USED  *        32.52 MB      
 **********************************************************************************************************************************

 ITER.   ENERGY(OLD)    ENERGY(NEW)      DE          GRADMAX     GRADNORM    GRADRMS     STEPMAX     STEPLEN     STEPRMS   CPU-time
   1   -76.33137938   -76.33217479    -0.00079541  0.03991264  0.04023789  0.02845248  0.03003566  0.03794445  0.01897222      1.46

 Current geometry (xyz format, in Angstrom)

    3
 CCSD(T)/CC-PVTZ  ENERGY=-76.33217479
 O          0.0000000000        0.0000000000       -0.0670316094
 H          0.0000000000        0.7554143427        0.5320086171
 H          0.0000000000       -0.7554143427        0.5320086171

 **********************************************************************************************************************************

 Current variables
 R1=                  0.96410581 ANGSTROM
 A1=                103.17147839 DEGREE

 **********************************************************************************************************************************
 

 Number of displacements for numerical gradient:      4

 Starting task   2 Incrementing variable R1       by  -0.00529 ANG to    0.95881 ANG. CPU=    0.00 sec, Elapsed=    0.00 sec


 Recomputing integrals since geometry changed

1PROGRAM * SEWARD (Integral evaluation for generally contracted gaussian basis sets)     Author: Roland Lindh, 1990

 Geometry written to block  2 of record 700

 Orientation using atomic masses  
 Molecule type: Asymmetric top,     Order of principal axis = 2
 Symmetry elements: X,Y
 Rotational constants:     285.0116986    795.3503779    444.1837771 GHz  (calculated with average atomic masses)

 Point group  C2v 



 ATOMIC COORDINATES

 NR  ATOM    CHARGE       X              Y              Z

   1  O       8.00    0.000000000    0.000000000   -0.125976111
   2  H       1.00    0.000000000    1.419690830    0.999832426
   3  H       1.00    0.000000000   -1.419690830    0.999832426

 Bond lengths in Bohr (Angstrom)

 1-2  1.811895945  1-3  1.811895945
     ( 0.958814043)     ( 0.958814043)

 Bond angles

  2-1-3  103.17147839

 NUCLEAR CHARGE:                   10
 NUMBER OF PRIMITIVE AOS:          81
 NUMBER OF SYMMETRY AOS:           74
 NUMBER OF CONTRACTIONS:           58   (  23A1  +  11B1  +  17B2  +   7A2  )
 NUMBER OF CORE ORBITALS:           1   (   1A1  +   0B1  +   0B2  +   0A2  )
 NUMBER OF VALENCE ORBITALS:        6   (   3A1  +   1B1  +   2B2  +   0A2  )


 NUCLEAR REPULSION ENERGY    9.18271853

 Eigenvalues of metric

         1 0.259E-02 0.580E-02 0.109E-01 0.419E-01 0.840E-01 0.114E+00 0.166E+00 0.270E+00
         2 0.402E-01 0.108E+00 0.245E+00 0.448E+00 0.525E+00 0.702E+00 0.110E+01 0.134E+01
         3 0.475E-02 0.759E-02 0.481E-01 0.688E-01 0.920E-01 0.169E+00 0.277E+00 0.322E+00
         4 0.116E+00 0.316E+00 0.539E+00 0.880E+00 0.121E+01 0.132E+01 0.229E+01


 Contracted 2-electron integrals neglected if value below      1.0D-14
 AO integral compression algorithm  1   Integral accuracy      1.0D-14

     4.456 MB (compressed) written to integral file (100.0%)


 NUMBER OF SORTED TWO-ELECTRON INTEGRALS:     396151.     BUFFER LENGTH:  32768
 NUMBER OF SEGMENTS:   1  SEGMENT LENGTH:     396151      RECORD LENGTH: 524288

 Memory used in sort:       0.95 MW

 SORT1 READ      562034. AND WROTE      366996. INTEGRALS IN      2 RECORDS. CPU TIME:     0.01 SEC, REAL TIME:     0.02 SEC
 SORT2 READ      366996. AND WROTE      396151. INTEGRALS IN     17 RECORDS. CPU TIME:     0.03 SEC, REAL TIME:     0.04 SEC

 FILE SIZES:   FILE 1:    23.6 MBYTE,  FILE 4:     8.4 MBYTE,   TOTAL:     32.0 MBYTE

 OPERATOR DM      FOR CENTER  0  COORDINATES:    0.000000    0.000000    0.000000
1PROGRAM * RHF-SCF (CLOSED SHELL)       Authors: W. Meyer, H.-J. Werner


 NUMBER OF ELECTRONS:       5+    5-
 CONVERGENCE THRESHOLDS:    1.00E-10 (Density)    1.00E-11 (Energy)
 MAX. NUMBER OF ITERATIONS:       60
 INTERPOLATION TYPE:            DIIS
 INTERPOLATION STEPS:              2 (START)      1 (STEP)
 LEVEL SHIFTS:                  0.00 (CLOSED)  0.00 (OPEN) 

 Number of closed-shell orbitals:    5 (   3   1   1   0 )


 Molecular orbitals read from record     2100.2  Type=RHF/CANONICAL (state 1.1)

 Molecular orbital dump at record        2100.1

 ITERATION    DDIFF          GRAD             ENERGY        2-EL.EN.            DIPOLE MOMENTS         DIIS   ORB.
    1      0.000D+00      0.000D+00       -76.05693052     75.680333    0.00000    0.00000    0.80370    0    start
    2      0.000D+00      0.513D-03       -76.05694574     75.720871    0.00000    0.00000    0.80467    1    diag
    3      0.115D-02      0.161D-03       -76.05694711     75.701641    0.00000    0.00000    0.80450    2    diag
    4      0.212D-03      0.652D-04       -76.05694742     75.708746    0.00000    0.00000    0.80533    3    diag
    5      0.666D-04      0.129D-04       -76.05694745     75.708179    0.00000    0.00000    0.80547    4    diag
    6      0.194D-04      0.344D-05       -76.05694746     75.708226    0.00000    0.00000    0.80556    5    diag
    7      0.705D-05      0.635D-06       -76.05694746     75.708227    0.00000    0.00000    0.80557    6    diag
    8      0.139D-05      0.826D-07       -76.05694746     75.708226    0.00000    0.00000    0.80557    7    orth
    9      0.168D-06      0.117D-07       -76.05694746     75.708226    0.00000    0.00000    0.80557    8    diag
   10      0.267D-07      0.183D-08       -76.05694746     75.708226    0.00000    0.00000    0.80557    9    diag
   11      0.352D-08      0.249D-09       -76.05694746     75.708226    0.00000    0.00000    0.80557    9    diag
   12      0.568D-09      0.449D-10       -76.05694746     75.708226    0.00000    0.00000    0.80557    9    diag
   13      0.102D-09      0.500D-11       -76.05694746     75.708226    0.00000    0.00000    0.80557    9    diag
   14      0.802D-11      0.989D-12       -76.05694746     75.708226    0.00000    0.00000    0.80557    0    orth

 Final occupancy:   3   1   1   0

 !RHF STATE 1.1 Energy                -76.056947457901
 Nuclear energy                         9.18271853
 One-electron energy                 -123.09377911
 Two-electron energy                   37.85411312
 Virial quotient                       -1.00072615
 !RHF STATE 1.1 Dipole moment           0.00000000     0.00000000     0.80556777
 Dipole moment /Debye                   0.00000000     0.00000000     2.04741492

 Orbital energies:

         1.1          2.1          3.1          4.1          5.1
    -20.555677    -1.345873    -0.580091     0.141846     0.606189

         1.2          2.2          3.2
     -0.504793     0.787138     0.949448

         1.3          2.3          3.3
     -0.706342     0.204189     0.541323

         1.4          2.4
      0.863662     2.062494

 HOMO      1.2    -0.504793 =     -13.7361eV
 LUMO      4.1     0.141846 =       3.8598eV
 LUMO-HOMO         0.646639 =      17.5959eV


 **********************************************************************************************************************************
 DATASETS  * FILE   NREC   LENGTH (MB)   RECORD NAMES
              1      20       22.27       500      610      700      900      950      970     1000      129      960     1100   
                                          VAR    BASINP    GEOM    SYMINP    ZMAT    AOBASIS   BASIS     P2S    ABASIS      S 
                                         1400     1410     1200     1210     1080     1600     1650     1300     1700     2100   
                                           T        V       H0       H01     AOSYM     SMH    MOLCAS    ERIS     OPER      RHF  

              2       5        0.43       700     1000      520     2100     5600   
                                         GEOM     BASIS   MCVARS     RHF     GINFO   

 PROGRAMS   *        TOTAL       RHF   CCSD(T)       RHF       INT
 CPU TIMES  *         2.41      0.30      0.15      0.03      0.34
 REAL TIME  *         3.14 SEC
 DISK USED  *        32.52 MB      
 **********************************************************************************************************************************


1PROGRAM * CCSD (Closed-shell coupled cluster)     Authors: C. Hampel, H.-J. Werner, 1991, M. Deegan, P.J. Knowles, 1992


 Convergence thresholds:  THRVAR = 1.00D-14  THRDEN = 1.00D-10

 CCSD(T)     terms to be evaluated (factor= 1.000)


 Number of core orbitals:           1 (   1   0   0   0 )
 Number of closed-shell orbitals:   4 (   2   1   1   0 )
 Number of external orbitals:      53 (  20  10  16   7 )

 Molecular orbitals read from record     2100.1  Type=RHF/CANONICAL (state 1.1)

 Number of N-1 electron functions:               4
 Number of N-2 electron functions:              10
 Number of singly external CSFs:                66
 Number of doubly external CSFs:              5929
 Total number of CSFs:                        5996

 Length of J-op  integral file:               0.00 MB
 Length of K-op  integral file:               0.10 MB
 Length of 3-ext integral record:             0.00 MB

 Memory could be reduced to 0.56 Mwords without degradation in triples

 Integral transformation finished. Total CPU:   0.00 sec, npass=  1  Memory used:   0.12 MW

 Reference energy:                    -76.05694746

 MP2 singlet pair energy:              -0.16635934
 MP2 triplet pair energy:              -0.09534763
 MP2 correlation energy:               -0.26170696
 MP2 total energy:                    -76.31865442

 SCS-MP2 correlation energy:           -0.25895861   (PS=  1.200000  PT=  0.333333)
 SCS-MP2 total energy:                -76.31590607

 ITER.      SQ.NORM     CORR.ENERGY   TOTAL ENERGY   ENERGY CHANGE        DEN1      VAR(S)    VAR(P)  DIIS     TIME  TIME/IT
   1      1.06061188    -0.26710567   -76.32405313    -0.00539871    -0.00040738  0.45D-03  0.82D-03  1  1     0.01     0.01
   2      1.06375297    -0.26752348   -76.32447094    -0.00041781    -0.00448205  0.76D-05  0.87D-04  2  2     0.02     0.01
   3      1.06478321    -0.26758543   -76.32453288    -0.00006194    -0.00081473  0.15D-05  0.40D-05  3  3     0.02     0.01
   4      1.06505213    -0.26759552   -76.32454298    -0.00001009    -0.00016159  0.10D-06  0.20D-06  4  4     0.03     0.01
   5      1.06508815    -0.26759291   -76.32454037     0.00000261    -0.00001851  0.35D-07  0.11D-07  5  5     0.03     0.01
   6      1.06509411    -0.26759276   -76.32454022     0.00000015    -0.00000171  0.53D-08  0.12D-08  6  6     0.04     0.01
   7      1.06509572    -0.26759288   -76.32454034    -0.00000012    -0.00000031  0.81D-09  0.16D-09  6  1     0.05     0.01
   8      1.06509631    -0.26759290   -76.32454035    -0.00000001     0.00000042  0.29D-10  0.12D-10  6  2     0.06     0.01
   9      1.06509651    -0.26759288   -76.32454034     0.00000002    -0.00000007  0.12D-11  0.11D-11  6  3     0.06     0.01
  10      1.06509655    -0.26759287   -76.32454033     0.00000000     0.00000002  0.40D-13  0.56D-13  6  4     0.07     0.01
  11      1.06509656    -0.26759287   -76.32454033     0.00000000    -0.00000001  0.17D-14  0.41D-14  6  5     0.08     0.01
  12      1.06509656    -0.26759287   -76.32454033    -0.00000000     0.00000000  0.15D-15  0.29D-15  6  6     0.08     0.01
  13      1.06509656    -0.26759287   -76.32454033    -0.00000000     0.00000000  0.28D-16  0.23D-16  6  1     0.09     0.01

 Norm of t1 vector:      0.02624891      S-energy:     0.00000000      T1 diagnostic:  0.00656223
                                                                       D1 diagnostic:  0.01082664

 Total CPU time for triples:      0.02 sec


 RESULTS
 =======

  Reference energy                    -76.056947457901
  CCSD singlet pair energy             -0.182573263138
  CCSD triplet pair energy             -0.085019611472
  CCSD correlation energy              -0.267592874536

  Triples (T) contribution             -0.007670635366
  Total correlation energy             -0.275263509902

  CCSD total energy                   -76.324540332437
  CCSD[T] energy                      -76.332404710637
  CCSD-T energy                       -76.332073888715
 !CCSD(T) total energy                -76.332210967803

 Timing summary (sec):

 STEP                 CPU(USER)    SYS     CPU(TOT)    WALL
 CCSD iterations         0.09      0.02      0.11      0.11
 Triples                 0.02      0.00      0.02      0.02

 Program statistics:

 Available memory in ccsd:               999998800
 Min. memory needed in ccsd:                 31875
 Max. memory used in ccsd:                   36141
 Max. memory used in cckext:                 65678 (13 integral passes)



 **********************************************************************************************************************************
 DATASETS  * FILE   NREC   LENGTH (MB)   RECORD NAMES
              1      21       23.07       500      610      700      900      950      970     1000      129      960     1100   
                                          VAR    BASINP    GEOM    SYMINP    ZMAT    AOBASIS   BASIS     P2S    ABASIS      S 
                                         1400     1410     1200     1210     1080     1600     1650     1300     1700     2100   
                                           T        V       H0       H01     AOSYM     SMH    MOLCAS    ERIS     OPER      RHF  
                                         1380   
                                         JKOP   

              2       5        0.43       700     1000      520     2100     5600   
                                         GEOM     BASIS   MCVARS     RHF     GINFO   

 PROGRAMS   *        TOTAL   CCSD(T)   CCSD(T)       RHF       INT
 CPU TIMES  *         2.55      0.13      0.15      0.03      0.34
 REAL TIME  *         3.30 SEC
 DISK USED  *        32.52 MB      
 **********************************************************************************************************************************

 Tasks on processor    0 finished.  CPU=      0.51 sec, Elapsed=      0.52 sec. Waiting for other processors...
 Tasks on   7 processors finished.  CPU=      3.87 sec, Elapsed=      0.53 sec

 Numerical gradient for CCSD(T)

 Total Energy           -76.33217479  Dipole moments:    0.000000    0.000000    0.000000

 Variable       Value            Gradient       Hessian                Dipole gradient
 R1             0.964 ANG      0.01668938     3.72379253      0.000000    0.000000    0.000000

 Variable       Value            Gradient       Hessian                Dipole gradient
 A1           103.171 DEG     -0.00001072     0.00005074      0.000000    0.000000    0.000000
 Reading points  1 to  2 from record 700.2,  wavefunction type=CCSD(T)         

 Making model hessian for Z-matrix coordinates
 BFGS update of hessian using  1 points

 Entering Rational Function Geometry Optimization

 Optimization point 2

 Variable                      Last           Current        Next           Gradient       Hessian

 E(CCSD(T)) / Hartree      -76.33137938   -76.33217479   -76.33221326
 R1 / ANGSTROM               0.98000000     0.96410581     0.95958788     0.01668938     3.69419584
 A1 / DEGREE               104.50000000   103.17147839   103.31520066    -0.00001072     0.00007498
 Convergence:                0.00000000  (line search)     0.00889853     0.00885296  (total)

 Geometry written to block  3 of record 700


 Recomputing integrals since geometry changed

1PROGRAM * SEWARD (Integral evaluation for generally contracted gaussian basis sets)     Author: Roland Lindh, 1990

 Geometry written to block  3 of record 700

 Orientation using atomic masses  
 Molecule type: Asymmetric top,     Order of principal axis = 2
 Symmetry elements: X,Y
 Rotational constants:     284.5115778    796.5871529    442.5875372 GHz  (calculated with average atomic masses)

 Point group  C2v 



 ATOMIC COORDINATES

 NR  ATOM    CHARGE       X              Y              Z

   1  O       8.00    0.000000000    0.000000000   -0.125878278
   2  H       1.00    0.000000000    1.422248660    0.999055959
   3  H       1.00    0.000000000   -1.422248660    0.999055959

 Bond lengths in Bohr (Angstrom)

 1-2  1.813358290  1-3  1.813358290
     ( 0.959587882)     ( 0.959587882)

 Bond angles

  2-1-3  103.31520066

 NUCLEAR CHARGE:                   10
 NUMBER OF PRIMITIVE AOS:          81
 NUMBER OF SYMMETRY AOS:           74
 NUMBER OF CONTRACTIONS:           58   (  23A1  +  11B1  +  17B2  +   7A2  )
 NUMBER OF CORE ORBITALS:           1   (   1A1  +   0B1  +   0B2  +   0A2  )
 NUMBER OF VALENCE ORBITALS:        6   (   3A1  +   1B1  +   2B2  +   0A2  )


 NUCLEAR REPULSION ENERGY    9.17496394

 Eigenvalues of metric

         1 0.259E-02 0.582E-02 0.109E-01 0.419E-01 0.841E-01 0.114E+00 0.167E+00 0.270E+00
         2 0.403E-01 0.109E+00 0.245E+00 0.448E+00 0.525E+00 0.703E+00 0.110E+01 0.134E+01
         3 0.475E-02 0.762E-02 0.481E-01 0.690E-01 0.922E-01 0.170E+00 0.278E+00 0.323E+00
         4 0.116E+00 0.317E+00 0.540E+00 0.880E+00 0.121E+01 0.132E+01 0.229E+01


 Contracted 2-electron integrals neglected if value below      1.0D-14
 AO integral compression algorithm  1   Integral accuracy      1.0D-14

     4.456 MB (compressed) written to integral file (100.0%)


 NUMBER OF SORTED TWO-ELECTRON INTEGRALS:     396151.     BUFFER LENGTH:  32768
 NUMBER OF SEGMENTS:   1  SEGMENT LENGTH:     396151      RECORD LENGTH: 524288

 Memory used in sort:       0.95 MW

 SORT1 READ      562034. AND WROTE      366996. INTEGRALS IN      2 RECORDS. CPU TIME:     0.01 SEC, REAL TIME:     0.01 SEC
 SORT2 READ      366996. AND WROTE      396151. INTEGRALS IN     17 RECORDS. CPU TIME:     0.03 SEC, REAL TIME:     0.04 SEC

 FILE SIZES:   FILE 1:    23.6 MBYTE,  FILE 4:     8.4 MBYTE,   TOTAL:     32.0 MBYTE

 OPERATOR DM      FOR CENTER  0  COORDINATES:    0.000000    0.000000    0.000000
1PROGRAM * RHF-SCF (CLOSED SHELL)       Authors: W. Meyer, H.-J. Werner


 NUMBER OF ELECTRONS:       5+    5-
 CONVERGENCE THRESHOLDS:    1.00E-10 (Density)    1.00E-11 (Energy)
 MAX. NUMBER OF ITERATIONS:       60
 INTERPOLATION TYPE:            DIIS
 INTERPOLATION STEPS:              2 (START)      1 (STEP)
 LEVEL SHIFTS:                  0.00 (CLOSED)  0.00 (OPEN) 

 Number of closed-shell orbitals:    5 (   3   1   1   0 )


 Molecular orbitals read from record     2100.2  Type=RHF/CANONICAL (state 1.1)

 Molecular orbital dump at record        2100.2

 ITERATION    DDIFF          GRAD             ENERGY        2-EL.EN.            DIPOLE MOMENTS         DIIS   ORB.
    1      0.000D+00      0.000D+00       -76.05689423     75.673023    0.00000    0.00000    0.80327    0    start
    2      0.000D+00      0.446D-03       -76.05690613     75.708073    0.00000    0.00000    0.80410    1    diag
    3      0.996D-03      0.141D-03       -76.05690722     75.691333    0.00000    0.00000    0.80397    2    diag
    4      0.187D-03      0.579D-04       -76.05690748     75.697621    0.00000    0.00000    0.80471    3    diag
    5      0.596D-04      0.117D-04       -76.05690751     75.697108    0.00000    0.00000    0.80484    4    diag
    6      0.177D-04      0.302D-05       -76.05690751     75.697151    0.00000    0.00000    0.80492    5    diag
    7      0.617D-05      0.585D-06       -76.05690751     75.697152    0.00000    0.00000    0.80493    6    diag
    8      0.126D-05      0.758D-07       -76.05690751     75.697151    0.00000    0.00000    0.80493    7    orth
    9      0.159D-06      0.114D-07       -76.05690751     75.697151    0.00000    0.00000    0.80493    8    diag
   10      0.247D-07      0.165D-08       -76.05690751     75.697151    0.00000    0.00000    0.80493    9    diag
   11      0.316D-08      0.244D-09       -76.05690751     75.697151    0.00000    0.00000    0.80493    9    diag
   12      0.533D-09      0.428D-10       -76.05690751     75.697151    0.00000    0.00000    0.80493    9    diag
   13      0.902D-10      0.462D-11       -76.05690751     75.697151    0.00000    0.00000    0.80493    0    orth

 Final occupancy:   3   1   1   0

 !RHF STATE 1.1 Energy                -76.056907508535
 Nuclear energy                         9.17496394
 One-electron energy                 -123.08044701
 Two-electron energy                   37.84857557
 Virial quotient                       -1.00076892
 !RHF STATE 1.1 Dipole moment           0.00000000     0.00000000     0.80492562
 Dipole moment /Debye                   0.00000000     0.00000000     2.04578286

 Orbital energies:

         1.1          2.1          3.1          4.1          5.1
    -20.555745    -1.345362    -0.579657     0.141795     0.605214

         1.2          2.2          3.2
     -0.504683     0.787160     0.949961

         1.3          2.3          3.3
     -0.706201     0.204087     0.541239

         1.4          2.4
      0.863189     2.062504

 HOMO      1.2    -0.504683 =     -13.7331eV
 LUMO      4.1     0.141795 =       3.8584eV
 LUMO-HOMO         0.646478 =      17.5916eV


 **********************************************************************************************************************************
 DATASETS  * FILE   NREC   LENGTH (MB)   RECORD NAMES
              1      19       22.15       500      610      700      900      950      970     1000      129      960     1100   
                                          VAR    BASINP    GEOM    SYMINP    ZMAT    AOBASIS   BASIS     P2S    ABASIS      S 
                                         1400     1410     1200     1210     1080     1600     1650     1300     1700   
                                           T        V       H0       H01     AOSYM     SMH    MOLCAS    ERIS     OPER   

              2       5        0.43       700     1000      520     2100     5600   
                                         GEOM     BASIS   MCVARS     RHF     GINFO   

 PROGRAMS   *        TOTAL       RHF   CCSD(T)       RHF       INT
 CPU TIMES  *         2.94      0.37      0.15      0.03      0.34
 REAL TIME  *         3.74 SEC
 DISK USED  *        32.52 MB      
 **********************************************************************************************************************************


1PROGRAM * CCSD (Closed-shell coupled cluster)     Authors: C. Hampel, H.-J. Werner, 1991, M. Deegan, P.J. Knowles, 1992


 Convergence thresholds:  THRVAR = 1.00D-14  THRDEN = 1.00D-10

 CCSD(T)     terms to be evaluated (factor= 1.000)


 Number of core orbitals:           1 (   1   0   0   0 )
 Number of closed-shell orbitals:   4 (   2   1   1   0 )
 Number of external orbitals:      53 (  20  10  16   7 )

 Molecular orbitals read from record     2100.2  Type=RHF/CANONICAL (state 1.1)

 Number of N-1 electron functions:               4
 Number of N-2 electron functions:              10
 Number of singly external CSFs:                66
 Number of doubly external CSFs:              5929
 Total number of CSFs:                        5996

 Length of J-op  integral file:               0.00 MB
 Length of K-op  integral file:               0.10 MB
 Length of 3-ext integral record:             0.00 MB

 Memory could be reduced to 0.56 Mwords without degradation in triples

 Integral transformation finished. Total CPU:   0.00 sec, npass=  1  Memory used:   0.12 MW

 Reference energy:                    -76.05690751

 MP2 singlet pair energy:              -0.16638973
 MP2 triplet pair energy:              -0.09535920
 MP2 correlation energy:               -0.26174893
 MP2 total energy:                    -76.31865644

 SCS-MP2 correlation energy:           -0.25900229   (PS=  1.200000  PT=  0.333333)
 SCS-MP2 total energy:                -76.31590980

 ITER.      SQ.NORM     CORR.ENERGY   TOTAL ENERGY   ENERGY CHANGE        DEN1      VAR(S)    VAR(P)  DIIS     TIME  TIME/IT
   1      1.06065229    -0.26714320   -76.32405071    -0.00539427    -0.00039634  0.45D-03  0.82D-03  1  1     0.01     0.01
   2      1.06379963    -0.26756197   -76.32446948    -0.00041877    -0.00448719  0.76D-05  0.87D-04  2  2     0.02     0.01
   3      1.06483361    -0.26762425   -76.32453176    -0.00006228    -0.00081695  0.15D-05  0.40D-05  3  3     0.03     0.01
   4      1.06510363    -0.26763441   -76.32454192    -0.00001016    -0.00016209  0.10D-06  0.20D-06  4  4     0.03     0.01
   5      1.06513988    -0.26763179   -76.32453930     0.00000262    -0.00001860  0.35D-07  0.11D-07  5  5     0.04     0.01
   6      1.06514590    -0.26763165   -76.32453915     0.00000015    -0.00000172  0.53D-08  0.12D-08  6  6     0.05     0.01
   7      1.06514753    -0.26763177   -76.32453928    -0.00000012    -0.00000031  0.82D-09  0.16D-09  6  1     0.05     0.01
   8      1.06514813    -0.26763178   -76.32453929    -0.00000001     0.00000042  0.29D-10  0.13D-10  6  2     0.06     0.01
   9      1.06514833    -0.26763177   -76.32453928     0.00000002    -0.00000008  0.12D-11  0.11D-11  6  3     0.07     0.01
  10      1.06514837    -0.26763176   -76.32453927     0.00000000     0.00000002  0.40D-13  0.57D-13  6  4     0.07     0.01
  11      1.06514838    -0.26763176   -76.32453927     0.00000000    -0.00000001  0.18D-14  0.42D-14  6  5     0.08     0.01
  12      1.06514837    -0.26763176   -76.32453927    -0.00000000     0.00000000  0.16D-15  0.29D-15  6  6     0.09     0.01
  13      1.06514837    -0.26763176   -76.32453927    -0.00000000     0.00000000  0.28D-16  0.23D-16  6  1     0.10     0.01

 Norm of t1 vector:      0.02627654      S-energy:     0.00000000      T1 diagnostic:  0.00656913
                                                                       D1 diagnostic:  0.01084253

 Total CPU time for triples:      0.02 sec


 RESULTS
 =======

  Reference energy                    -76.056907508535
  CCSD singlet pair energy             -0.182613263777
  CCSD triplet pair energy             -0.085018498684
  CCSD correlation energy              -0.267631762386

  Triples (T) contribution             -0.007675486756
  Total correlation energy             -0.275307249143

  CCSD total energy                   -76.324539270922
  CCSD[T] energy                      -76.332408774674
  CCSD-T energy                       -76.332077476463
 !CCSD(T) total energy                -76.332214757678

 Timing summary (sec):

 STEP                 CPU(USER)    SYS     CPU(TOT)    WALL
 CCSD iterations         0.10      0.00      0.10      0.10
 Triples                 0.02      0.01      0.03      0.02

 Program statistics:

 Available memory in ccsd:               999998927
 Min. memory needed in ccsd:                 31875
 Max. memory used in ccsd:                   36141
 Max. memory used in cckext:                 65678 (13 integral passes)



 **********************************************************************************************************************************
 DATASETS  * FILE   NREC   LENGTH (MB)   RECORD NAMES
              1      20       22.92       500      610      700      900      950      970     1000      129      960     1100   
                                          VAR    BASINP    GEOM    SYMINP    ZMAT    AOBASIS   BASIS     P2S    ABASIS      S 
                                         1400     1410     1200     1210     1080     1600     1650     1300     1700     1380   
                                           T        V       H0       H01     AOSYM     SMH    MOLCAS    ERIS     OPER     JKOP   

              2       5        0.43       700     1000      520     2100     5600   
                                         GEOM     BASIS   MCVARS     RHF     GINFO   

 PROGRAMS   *        TOTAL   CCSD(T)   CCSD(T)       RHF       INT
 CPU TIMES  *         3.08      0.14      0.15      0.03      0.34
 REAL TIME  *         3.90 SEC
 DISK USED  *        32.52 MB      
 **********************************************************************************************************************************
   2   -76.33217479   -76.33221476    -0.00003997  0.00883164  0.00885296  0.00625999  0.00853765  0.00889853  0.00444926      2.43

 Current geometry (xyz format, in Angstrom)

    3
 CCSD(T)/CC-PVTZ  ENERGY=-76.33221476
 O          0.0000000000        0.0000000000       -0.0666119162
 H          0.0000000000        0.7526215792        0.5286776458
 H          0.0000000000       -0.7526215792        0.5286776458

 **********************************************************************************************************************************

 Current variables
 R1=                  0.95958788 ANGSTROM
 A1=                103.31520066 DEGREE

 **********************************************************************************************************************************
 

 Number of displacements for numerical gradient:      4

 Starting task   1 Incrementing variable R1       by   0.00529 ANG to    0.96488 ANG. CPU=    0.00 sec, Elapsed=    0.00 sec


 Recomputing integrals since geometry changed

1PROGRAM * SEWARD (Integral evaluation for generally contracted gaussian basis sets)     Author: Roland Lindh, 1990

 Geometry written to block  3 of record 700

 Orientation using atomic masses  
 Molecule type: Asymmetric top,     Order of principal axis = 2
 Symmetry elements: X,Y
 Rotational constants:     281.3993930    787.8735308    437.7462081 GHz  (calculated with average atomic masses)

 Point group  C2v 



 ATOMIC COORDINATES

 NR  ATOM    CHARGE       X              Y              Z

   1  O       8.00    0.000000000    0.000000000   -0.126572450
   2  H       1.00    0.000000000    1.430091835    1.004565383
   3  H       1.00    0.000000000   -1.430091835    1.004565383

 Bond lengths in Bohr (Angstrom)

 1-2  1.823358290  1-3  1.823358290
     ( 0.964879655)     ( 0.964879655)

 Bond angles

  2-1-3  103.31520066

 NUCLEAR CHARGE:                   10
 NUMBER OF PRIMITIVE AOS:          81
 NUMBER OF SYMMETRY AOS:           74
 NUMBER OF CONTRACTIONS:           58   (  23A1  +  11B1  +  17B2  +   7A2  )
 NUMBER OF CORE ORBITALS:           1   (   1A1  +   0B1  +   0B2  +   0A2  )
 NUMBER OF VALENCE ORBITALS:        6   (   3A1  +   1B1  +   2B2  +   0A2  )


 NUCLEAR REPULSION ENERGY    9.12464490

 Eigenvalues of metric

         1 0.263E-02 0.593E-02 0.111E-01 0.424E-01 0.848E-01 0.115E+00 0.169E+00 0.272E+00
         2 0.406E-01 0.110E+00 0.249E+00 0.449E+00 0.528E+00 0.707E+00 0.110E+01 0.134E+01
         3 0.480E-02 0.785E-02 0.482E-01 0.698E-01 0.932E-01 0.173E+00 0.279E+00 0.327E+00
         4 0.118E+00 0.319E+00 0.543E+00 0.884E+00 0.121E+01 0.132E+01 0.229E+01


 Contracted 2-electron integrals neglected if value below      1.0D-14
 AO integral compression algorithm  1   Integral accuracy      1.0D-14

     4.456 MB (compressed) written to integral file (100.0%)


 NUMBER OF SORTED TWO-ELECTRON INTEGRALS:     396151.     BUFFER LENGTH:  32768
 NUMBER OF SEGMENTS:   1  SEGMENT LENGTH:     396151      RECORD LENGTH: 524288

 Memory used in sort:       0.95 MW

 SORT1 READ      562034. AND WROTE      366996. INTEGRALS IN      2 RECORDS. CPU TIME:     0.01 SEC, REAL TIME:     0.02 SEC
 SORT2 READ      366996. AND WROTE      396151. INTEGRALS IN     17 RECORDS. CPU TIME:     0.03 SEC, REAL TIME:     0.03 SEC

 FILE SIZES:   FILE 1:    23.6 MBYTE,  FILE 4:     8.4 MBYTE,   TOTAL:     32.0 MBYTE

 OPERATOR DM      FOR CENTER  0  COORDINATES:    0.000000    0.000000    0.000000
1PROGRAM * RHF-SCF (CLOSED SHELL)       Authors: W. Meyer, H.-J. Werner


 NUMBER OF ELECTRONS:       5+    5-
 CONVERGENCE THRESHOLDS:    1.00E-10 (Density)    1.00E-11 (Energy)
 MAX. NUMBER OF ITERATIONS:       60
 INTERPOLATION TYPE:            DIIS
 INTERPOLATION STEPS:              2 (START)      1 (STEP)
 LEVEL SHIFTS:                  0.00 (CLOSED)  0.00 (OPEN) 

 Number of closed-shell orbitals:    5 (   3   1   1   0 )


 Molecular orbitals read from record     2100.2  Type=RHF/CANONICAL (state 1.1)

 Molecular orbital dump at record        2100.1

 ITERATION    DDIFF          GRAD             ENERGY        2-EL.EN.            DIPOLE MOMENTS         DIIS   ORB.
    1      0.000D+00      0.000D+00       -76.05644443     75.647589    0.00000    0.00000    0.80848    0    start
    2      0.000D+00      0.512D-03       -76.05645962     75.607305    0.00000    0.00000    0.80751    1    diag
    3      0.115D-02      0.160D-03       -76.05646098     75.626521    0.00000    0.00000    0.80769    2    diag
    4      0.211D-03      0.655D-04       -76.05646130     75.619348    0.00000    0.00000    0.80686    3    diag
    5      0.666D-04      0.130D-04       -76.05646133     75.619919    0.00000    0.00000    0.80671    4    diag
    6      0.195D-04      0.346D-05       -76.05646133     75.619872    0.00000    0.00000    0.80662    5    diag
    7      0.714D-05      0.646D-06       -76.05646133     75.619871    0.00000    0.00000    0.80661    6    diag
    8      0.142D-05      0.844D-07       -76.05646133     75.619872    0.00000    0.00000    0.80661    7    orth
    9      0.172D-06      0.122D-07       -76.05646133     75.619871    0.00000    0.00000    0.80661    8    diag
   10      0.276D-07      0.191D-08       -76.05646133     75.619871    0.00000    0.00000    0.80661    9    diag
   11      0.366D-08      0.259D-09       -76.05646133     75.619871    0.00000    0.00000    0.80661    9    diag
   12      0.595D-09      0.464D-10       -76.05646133     75.619871    0.00000    0.00000    0.80661    9    diag
   13      0.104D-09      0.517D-11       -76.05646133     75.619871    0.00000    0.00000    0.80661    9    diag
   14      0.815D-11      0.103D-11       -76.05646133     75.619871    0.00000    0.00000    0.80661    0    orth

 Final occupancy:   3   1   1   0

 !RHF STATE 1.1 Energy                -76.056461330317
 Nuclear energy                         9.12464490
 One-electron energy                 -122.99104194
 Two-electron energy                   37.80993571
 Virial quotient                       -1.00103409
 !RHF STATE 1.1 Dipole moment           0.00000000     0.00000000     0.80661331
 Dipole moment /Debye                   0.00000000     0.00000000     2.05007225

 Orbital energies:

         1.1          2.1          3.1          4.1          5.1
    -20.556685    -1.342645    -0.578646     0.141243     0.602040

         1.2          2.2          3.2
     -0.504263     0.787102     0.949395

         1.3          2.3          3.3
     -0.703346     0.203591     0.539044

         1.4          2.4
      0.862074     2.060419

 HOMO      1.2    -0.504263 =     -13.7217eV
 LUMO      4.1     0.141243 =       3.8434eV
[...]

 STEP                 CPU(USER)    SYS     CPU(TOT)    WALL
 Transformation          0.03      0.01      0.04      0.04
 CCSD iterations         0.40      0.03      0.43      0.43
 Triples                 0.13      0.00      0.13      0.13

 Program statistics:

 Available memory in ccsd:               999998686
 Min. memory needed in ccsd:                111654
 Max. memory used in ccsd:                  126268
 Max. memory used in cckext:                118262 (13 integral passes)



 **********************************************************************************************************************************
 DATASETS  * FILE   NREC   LENGTH (MB)   RECORD NAMES
              1      22       28.45       500      610      700      702      900      950      970     1001      129      960   
                                          VAR    BASINP    GEOM     GEOM    SYMINP    ZMAT    AOBASIS   BASIS     P2S    ABASIS    
                                         1100     1400     1410     1200     1210     1080     1600     1650     1300     1700   
                                           S        T        V       H0       H01     AOSYM     SMH    MOLCAS    ERIS     OPER   
                                         2100     1380   
                                          RHF     JKOP   

              2       9        0.89       700     1000      520     2100     5600      701     5500      702     1001   
                                         GEOM     BASIS   MCVARS     RHF     GINFO    GEOM     HINFO    GEOM     BASIS   

 PROGRAMS   *        TOTAL   CCSD(T)      OPTG   CCSD(T)       RHF       INT
 CPU TIMES  *         9.43      0.59      4.37      0.15      0.03      0.34
 REAL TIME  *        10.99 SEC
 DISK USED  *        50.02 MB      
 **********************************************************************************************************************************

 Tasks on processor    0 finished.  CPU=      4.88 sec, Elapsed=      4.88 sec. Waiting for other processors...
 Tasks on processor    0 finished.  CPU=      4.93 sec, Elapsed=      4.93 sec. All tasks on all processors finished.

 CCSD(T) hessian saved to record  5300.2

 FREQUENCIES * CALCULATION OF HARMONIC VIBRATIONAL SPECTRA FOR CCSD(T)


 Permanent Dipole Moment [debye]
   1-  3    0.000000    0.000000    0.000000

 Dipole Moment Norm    0.0000000 [debye]

 Dipole Moment Derivatives [debye/ang]
                   1             2             3             4             5             6             7             8
         1     0.0000000     0.0000000     0.0000000     0.0000000     0.0000000     0.0000000     0.0000000     0.0000000
         2     0.0000000     0.0000000     0.0000000     0.0000000     0.0000000     0.0000000     0.0000000     0.0000000
         3     0.0000000     0.0000000     0.0000000     0.0000000     0.0000000     0.0000000     0.0000000     0.0000000
                   9
         1     0.0000000
         2     0.0000000
         3     0.0000000

 Projecting out rotations and translations

   Low Vibration      Wavenumber
        Nr             [1/cm] 
        1                0.00
        2                0.00
        3                0.00
        4                0.00
        5                0.00
        6                0.00

     Vibration        Wavenumber
        Nr             [1/cm] 
        1             1668.05
        2             3840.55
        3             3945.13

 FREQUENCIES * CALCULATION OF NORMAL MODES FOR CCSD(T)


 Atomic Coordinates

  Nr  Atom  Charge       X              Y              Z

   1   O     8.00    0.000000000    0.000000000   -0.125488574
   2   H     1.00    0.000000000    1.424685325    0.995962997
   3   H     1.00    0.000000000   -1.424685325    0.995962997

 Frequencies dumped to record   5400.2

 Gradient norm at reference geometry: 0.41396D-04

 Normal Modes

                              1 A1        2 A1        3 B2 
 Wavenumbers [cm-1]         1668.05     3840.55     3945.13
 Intensities [km/mol]          0.00        0.00        0.00
 Intensities [relative]        0.00        0.00        0.00
           OX1              0.00000     0.00000     0.00000
           OY1              0.00000     0.00000    -0.06717
           OZ1             -0.06786    -0.04888     0.00000
           HX2              0.00000     0.00000    -0.00000
           HY2             -0.41169     0.57147     0.53308
           HZ2              0.53854     0.38797     0.41962
           HX3             -0.00000    -0.00000     0.00000
           HY3              0.41169    -0.57147     0.53308
           HZ3              0.53854     0.38797    -0.41962


 Normal Modes of low/zero frequencies

                                  1           2           3           4           5
 Wavenumbers [cm-1]            0.00        0.00        0.00        0.00        0.00
 Intensities [km/mol]          0.00        0.00        0.00        0.00        0.00
 Intensities [relative]        0.00        0.00        0.00        0.00        0.00
           OX1              0.00000     0.00000     0.15953     0.19249     0.00000
           OY1             -0.12995     0.19249     0.00000     0.00000    -0.02520
           OZ1              0.18861     0.10879     0.00000     0.00000     0.04243
           HX2             -0.16907    -0.23676     0.54228    -0.44944     0.33357
           HY2             -0.03598     0.03754     0.00000     0.00000    -0.38836
           HZ2              0.06922     0.30563     0.00000     0.00000     0.50378
           HX3              0.16907     0.23676     0.54228    -0.44944    -0.33357
           HY3             -0.03598     0.03754     0.00000     0.00000    -0.38836
           HZ3              0.30799    -0.08806     0.00000     0.00000    -0.41893

                                  6
 Wavenumbers [cm-1]            0.00
 Intensities [km/mol]          0.00
 Intensities [relative]        0.00
           OX1              0.00000
           OY1              0.05843
           OZ1              0.07938
           HX2              0.54786
           HY2              0.24158
           HZ2             -0.15328
           HX3             -0.54786
           HY3              0.24158
           HZ3              0.31205


 Zero point energy:  0.02153720 [H]     4726.87 [1/CM]       56.55 [KJ/MOL]

 Recomputing wavefunction at initial geometry


 Recomputing integrals since geometry and symmetry changed


 Using spherical harmonics

 Library entry O      S cc-pVTZ              selected for orbital group  1
 Library entry O      P cc-pVTZ              selected for orbital group  1
 Library entry O      D cc-pVTZ              selected for orbital group  1
 Library entry O      F cc-pVTZ              selected for orbital group  1
 Library entry H      S cc-pVTZ              selected for orbital group  2
 Library entry H      P cc-pVTZ              selected for orbital group  2
 Library entry H      D cc-pVTZ              selected for orbital group  2

1PROGRAM * SEWARD (Integral evaluation for generally contracted gaussian basis sets)     Author: Roland Lindh, 1990

 Geometry written to block  1 of record 700

 Orientation using atomic masses  
 Molecule type: Asymmetric top,     Order of principal axis = 2
 Symmetry elements: X,Y
 Rotational constants:     284.5125689    801.5424359    441.0749012 GHz  (calculated with average atomic masses)

 Point group  C2v 



 ATOMIC COORDINATES

 NR  ATOM    CHARGE       X              Y              Z

   1  O       8.00    0.000000000    0.000000000   -0.125488574
   2  H       1.00    0.000000000    1.424685325    0.995962997
   3  H       1.00    0.000000000   -1.424685325    0.995962997

 Bond lengths in Bohr (Angstrom)

 1-2  1.813113869  1-3  1.813113869
     ( 0.959458540)     ( 0.959458540)

 Bond angles

  2-1-3  103.58337284

 NUCLEAR CHARGE:                   10
 NUMBER OF PRIMITIVE AOS:          81
 NUMBER OF SYMMETRY AOS:           74
 NUMBER OF CONTRACTIONS:           58   (  23A1  +  11B1  +  17B2  +   7A2  )
 NUMBER OF CORE ORBITALS:           1   (   1A1  +   0B1  +   0B2  +   0A2  )
 NUMBER OF VALENCE ORBITALS:        6   (   3A1  +   1B1  +   2B2  +   0A2  )

 SYMMETRY CHANGED: INITIALIZING OCCUPATION


 NUCLEAR REPULSION ENERGY    9.17555213

 Eigenvalues of metric

         1 0.259E-02 0.582E-02 0.109E-01 0.419E-01 0.841E-01 0.114E+00 0.167E+00 0.270E+00
         2 0.403E-01 0.109E+00 0.245E+00 0.448E+00 0.525E+00 0.703E+00 0.110E+01 0.134E+01
         3 0.475E-02 0.762E-02 0.480E-01 0.690E-01 0.923E-01 0.170E+00 0.278E+00 0.322E+00
         4 0.116E+00 0.317E+00 0.540E+00 0.880E+00 0.121E+01 0.132E+01 0.229E+01


 Contracted 2-electron integrals neglected if value below      1.0D-14
 AO integral compression algorithm  1   Integral accuracy      1.0D-14

     4.456 MB (compressed) written to integral file (100.0%)


 NUMBER OF SORTED TWO-ELECTRON INTEGRALS:     396151.     BUFFER LENGTH:  32768
 NUMBER OF SEGMENTS:   1  SEGMENT LENGTH:     396151      RECORD LENGTH: 524288

 Memory used in sort:       0.95 MW

 SORT1 READ      562034. AND WROTE      366996. INTEGRALS IN      2 RECORDS. CPU TIME:     0.01 SEC, REAL TIME:     0.02 SEC
 SORT2 READ      366996. AND WROTE      396151. INTEGRALS IN     17 RECORDS. CPU TIME:     0.04 SEC, REAL TIME:     0.04 SEC

 FILE SIZES:   FILE 1:    23.6 MBYTE,  FILE 4:     8.4 MBYTE,   TOTAL:     32.0 MBYTE

 OPERATOR DM      FOR CENTER  0  COORDINATES:    0.000000    0.000000    0.000000
1PROGRAM * RHF-SCF (CLOSED SHELL)       Authors: W. Meyer, H.-J. Werner


 NUMBER OF ELECTRONS:       5+    5-
 CONVERGENCE THRESHOLDS:    1.00E-10 (Density)    1.00E-11 (Energy)
 MAX. NUMBER OF ITERATIONS:       60
 INTERPOLATION TYPE:            DIIS
 INTERPOLATION STEPS:              2 (START)      1 (STEP)
 LEVEL SHIFTS:                  0.00 (CLOSED)  0.00 (OPEN) 



 Molecular orbitals read from record     2100.2  Type=RHF/CANONICAL (state 1.1)

 Molecular orbital dump at record        2100.2

 ITERATION    DDIFF          GRAD             ENERGY        2-EL.EN.            DIPOLE MOMENTS         DIIS   ORB.
    1      0.000D+00      0.000D+00       -76.05694390     75.699579    0.00000    0.00000    0.80322    0    start
    2      0.000D+00      0.123D-11       -76.05694390     75.699579    0.00000    0.00000    0.80322    0    orth

 Final occupancy:   3   1   1   0

 !RHF STATE 1.1 Energy                -76.056943904551
 Nuclear energy                         9.17555213
 One-electron energy                 -123.08228561
 Two-electron energy                   37.84978957
 Virial quotient                       -1.00076876
 !RHF STATE 1.1 Dipole moment           0.00000000     0.00000000     0.80321927
 Dipole moment /Debye                   0.00000000     0.00000000     2.04144602

 Orbital energies:

         1.1          2.1          3.1          4.1          5.1
    -20.555590    -1.345223    -0.579147     0.141861     0.604331

         1.2          2.2          3.2
     -0.504605     0.787211     0.951098

         1.3          2.3          3.3
     -0.706789     0.204043     0.541737

         1.4          2.4
      0.862639     2.063140

 HOMO      1.2    -0.504605 =     -13.7310eV
 LUMO      4.1     0.141861 =       3.8602eV
 LUMO-HOMO         0.646465 =      17.5912eV


 **********************************************************************************************************************************
 DATASETS  * FILE   NREC   LENGTH (MB)   RECORD NAMES
              1      19       22.15       500      610      700      900      950      970     1000      129      960     1100   
                                          VAR    BASINP    GEOM    SYMINP    ZMAT    AOBASIS   BASIS     P2S    ABASIS      S 
                                         1400     1410     1200     1210     1080     1600     1650     1300     1700   
                                           T        V       H0       H01     AOSYM     SMH    MOLCAS    ERIS     OPER   

              2       8        0.43       700     1000      520     2100     5600     5300     5400     5450   
                                         GEOM     BASIS   MCVARS     RHF     GINFO    HESS     FREQ     NMOD   

 PROGRAMS   *        TOTAL       RHF      OPTG   CCSD(T)       RHF       INT
 CPU TIMES  *         9.82      0.34      4.37      0.15      0.03      0.34
 REAL TIME  *        11.43 SEC
 DISK USED  *        50.02 MB      
 **********************************************************************************************************************************


1PROGRAM * CCSD (Closed-shell coupled cluster)     Authors: C. Hampel, H.-J. Werner, 1991, M. Deegan, P.J. Knowles, 1992


 Convergence thresholds:  THRVAR = 1.00D-14  THRDEN = 1.00D-10

 CCSD(T)     terms to be evaluated (factor= 1.000)


 Number of core orbitals:           1 (   1   0   0   0 )
 Number of closed-shell orbitals:   4 (   2   1   1   0 )
 Number of external orbitals:      53 (  20  10  16   7 )

 Molecular orbitals read from record     2100.2  Type=RHF/CANONICAL (state 1.1)

 Number of N-1 electron functions:               4
 Number of N-2 electron functions:              10
 Number of singly external CSFs:                66
 Number of doubly external CSFs:              5929
 Total number of CSFs:                        5996

 Length of J-op  integral file:               0.00 MB
 Length of K-op  integral file:               0.10 MB
 Length of 3-ext integral record:             0.00 MB

 Memory could be reduced to 0.56 Mwords without degradation in triples

 Integral transformation finished. Total CPU:   0.00 sec, npass=  1  Memory used:   0.12 MW

 Reference energy:                    -76.05694390

 MP2 singlet pair energy:              -0.16636859
 MP2 triplet pair energy:              -0.09534480
 MP2 correlation energy:               -0.26171339
 MP2 total energy:                    -76.31865729

 SCS-MP2 correlation energy:           -0.25896796   (PS=  1.200000  PT=  0.333333)
 SCS-MP2 total energy:                -76.31591186

 ITER.      SQ.NORM     CORR.ENERGY   TOTAL ENERGY   ENERGY CHANGE        DEN1      VAR(S)    VAR(P)  DIIS     TIME  TIME/IT
   1      1.06063346    -0.26711255   -76.32405645    -0.00539916    -0.00040508  0.45D-03  0.82D-03  1  1     0.01     0.01
   2      1.06377802    -0.26753142   -76.32447532    -0.00041887    -0.00448451  0.76D-05  0.87D-04  2  2     0.02     0.01
   3      1.06481043    -0.26759360   -76.32453751    -0.00006219    -0.00081608  0.15D-05  0.40D-05  3  3     0.03     0.01
   4      1.06507990    -0.26760377   -76.32454767    -0.00001016    -0.00016182  0.10D-06  0.20D-06  4  4     0.03     0.01
   5      1.06511609    -0.26760115   -76.32454505     0.00000262    -0.00001858  0.35D-07  0.11D-07  5  5     0.04     0.01
   6      1.06512210    -0.26760100   -76.32454491     0.00000014    -0.00000172  0.54D-08  0.12D-08  6  6     0.05     0.01
   7      1.06512373    -0.26760113   -76.32454503    -0.00000012    -0.00000031  0.82D-09  0.16D-09  6  1     0.05     0.01
   8      1.06512434    -0.26760114   -76.32454505    -0.00000001     0.00000042  0.29D-10  0.13D-10  6  2     0.06     0.01
   9      1.06512454    -0.26760113   -76.32454503     0.00000002    -0.00000008  0.12D-11  0.11D-11  6  3     0.07     0.01
  10      1.06512458    -0.26760112   -76.32454503     0.00000000     0.00000002  0.41D-13  0.57D-13  6  4     0.07     0.01
  11      1.06512458    -0.26760112   -76.32454503     0.00000000    -0.00000001  0.18D-14  0.42D-14  6  5     0.08     0.01
  12      1.06512458    -0.26760112   -76.32454503    -0.00000000     0.00000000  0.16D-15  0.29D-15  6  6     0.09     0.01
  13      1.06512458    -0.26760112   -76.32454503    -0.00000000     0.00000000  0.28D-16  0.23D-16  6  1     0.10     0.01

 Norm of t1 vector:      0.02624536      S-energy:     0.00000000      T1 diagnostic:  0.00656134
                                                                       D1 diagnostic:  0.01083428

 Total CPU time for triples:      0.02 sec


 RESULTS
 =======

  Reference energy                    -76.056943904551
  CCSD singlet pair energy             -0.182590259694
  CCSD triplet pair energy             -0.085010861536
  CCSD correlation energy              -0.267601121156

  Triples (T) contribution             -0.007671491062
  Total correlation energy             -0.275272612218

  CCSD total energy                   -76.324545025706
  CCSD[T] energy                      -76.332410242440
  CCSD-T energy                       -76.332079405811
 !CCSD(T) total energy                -76.332216516768

 Timing summary (sec):

 STEP                 CPU(USER)    SYS     CPU(TOT)    WALL
 Transformation          0.01      0.01      0.02      0.01
 CCSD iterations         0.09      0.01      0.10      0.11
 Triples                 0.02      0.00      0.02      0.02

 Program statistics:

 Available memory in ccsd:               999999836
 Min. memory needed in ccsd:                 31875
 Max. memory used in ccsd:                   36141
 Max. memory used in cckext:                 65678 (13 integral passes)



 **********************************************************************************************************************************
 DATASETS  * FILE   NREC   LENGTH (MB)   RECORD NAMES
              1      20       22.92       500      610      700      900      950      970     1000      129      960     1100   
                                          VAR    BASINP    GEOM    SYMINP    ZMAT    AOBASIS   BASIS     P2S    ABASIS      S 
                                         1400     1410     1200     1210     1080     1600     1650     1300     1700     1380   
                                           T        V       H0       H01     AOSYM     SMH    MOLCAS    ERIS     OPER     JKOP   

              2       8        0.43       700     1000      520     2100     5600     5300     5400     5450   
                                         GEOM     BASIS   MCVARS     RHF     GINFO    HESS     FREQ     NMOD   

 PROGRAMS   *        TOTAL   CCSD(T)      OPTG   CCSD(T)       RHF       INT
 CPU TIMES  *         9.96      0.15      4.37      0.15      0.03      0.34
 REAL TIME  *        11.59 SEC
 DISK USED  *        50.02 MB      
 **********************************************************************************************************************************


 **********************************************************************************************************************************
 DATASETS  * FILE   NREC   LENGTH (MB)   RECORD NAMES
              1      20       22.92       500      610      700      900      950      970     1000      129      960     1100   
                                          VAR    BASINP    GEOM    SYMINP    ZMAT    AOBASIS   BASIS     P2S    ABASIS      S 
                                         1400     1410     1200     1210     1080     1600     1650     1300     1700     1380   
                                           T        V       H0       H01     AOSYM     SMH    MOLCAS    ERIS     OPER     JKOP   

              2       8        0.43       700     1000      520     2100     5600     5300     5400     5450   
                                         GEOM     BASIS   MCVARS     RHF     GINFO    HESS     FREQ     NMOD   

 PROGRAMS   *        TOTAL      FREQ      OPTG   CCSD(T)       RHF       INT
 CPU TIMES  *         9.96      4.94      4.37      0.15      0.03      0.34
 REAL TIME  *        11.59 SEC
 DISK USED  *        50.02 MB      
 **********************************************************************************************************************************

 CCSD(T)/cc-pVTZ energy=    -76.332216516768

   OPTG(CCSD(T))        CCSD(T)         RHF-SCF 
    -76.33221652    -76.33137938    -76.05465861
 **********************************************************************************************************************************
 Variable memory released
