
                                 *****************
                                 * O   R   C   A *
                                 *****************

           --- An Ab Initio, DFT and Semiempirical electronic structure package ---

                  #######################################################
                  #                        -***-                        #
                  #  Department of molecular theory and spectroscopy    #
                  #              Directorship: Frank Neese              #
                  # Max Planck Institute for Chemical Energy Conversion #
                  #                  D-45470 Muelheim/Ruhr              #
                  #                       Germany                       #
                  #                                                     #
                  #                  All rights reserved                #
                  #                        -***-                        #
                  #######################################################


                         Program Version 4.0.1.2 - RELEASE -


 With contributions from (in alphabetic order):
   Daniel Aravena         : Magnetic Properties
   Michael Atanasov       : Ab Initio Ligand Field Theory
   Ute Becker             : Parallelization
   Martin Brehm           : Molecular dynamics
   Dmytro Bykov           : SCF Hessian
   Vijay G. Chilkuri      : MRCI spin determinant printing
   Dipayan Datta          : RHF DLPNO-CCSD density
   Achintya Kumar Dutta   : EOM-CC, STEOM-CC
   Dmitry Ganyushin       : Spin-Orbit,Spin-Spin,Magnetic field MRCI
   Yang Guo               : DLPNO-NEVPT2, CIM, IAO-localization
   Andreas Hansen         : Spin unrestricted coupled pair/coupled cluster methods
   Lee Huntington         : MR-EOM, pCC
   Robert Izsak           : Overlap fitted RIJCOSX, COSX-SCS-MP3, EOM
   Christian Kollmar      : KDIIS, OOCD, Brueckner-CCSD(T), CCSD density
   Simone Kossmann        : Meta GGA functionals, TD-DFT gradient, OOMP2, MP2 Hessian
   Martin Krupicka        : AUTO-CI
   Dagmar Lenk            : GEPOL surface
   Dimitrios Liakos       : Extrapolation schemes; parallel MDCI
   Dimitrios Manganas     : ROCIS; embedding schemes
   Dimitrios Pantazis     : SARC Basis sets
   Taras Petrenko         : DFT Hessian,TD-DFT gradient, ASA, ECA, R-Raman, ABS, FL, XAS/XES, NRVS
   Peter Pinski           : DLPNO-MP2
   Christoph Reimann      : Effective Core Potentials
   Marius Retegan         : Local ZFS, SOC
   Christoph Riplinger    : Optimizer, TS searches, QM/MM, DLPNO-CCSD(T), (RO)-DLPNO pert. Triples
   Tobias Risthaus        : Range-separated hybrids, TD-DFT gradient, RPA, STAB
   Michael Roemelt        : Restricted open shell CIS
   Masaaki Saitow         : Open-shell DLPNO
   Barbara Sandhoefer     : DKH picture change effects
   Kantharuban Sivalingam : CASSCF convergence, NEVPT2, FIC-MRCI
   Georgi Stoychev        : AutoAux
   Boris Wezisla          : Elementary symmetry handling
   Frank Wennmohs         : Technical directorship


 We gratefully acknowledge several colleagues who have allowed us to
 interface, adapt or use parts of their codes:
   Stefan Grimme, W. Hujo, H. Kruse,             : VdW corrections, initial TS optimization,
                  C. Bannwarth                     DFT functionals, gCP, sTDA/sTD-DF
   Ed Valeev                                     : LibInt (2-el integral package), F12 methods
   Garnet Chan, S. Sharma, J. Yang, R. Olivares  : DMRG
   Ulf Ekstrom                                   : XCFun DFT Library
   Mihaly Kallay                                 : mrcc  (arbitrary order and MRCC methods)
   Andreas Klamt, Michael Diedenhofen            : otool_cosmo (COSMO solvation model)
   Jiri Pittner, Ondrej Demel                    : Mk-CCSD
   Frank Weinhold                                : gennbo (NPA and NBO analysis)
   Christopher J. Cramer and Donald G. Truhlar   : smd solvation model


 Your calculation uses the libint2 library for the computation of 2-el integrals
 For citations please refer to: http://libint.valeyev.net

 This ORCA versions uses:
   CBLAS   interface :  Fast vector & matrix operations
   LAPACKE interface :  Fast linear algebra routines
   SCALAPACK package :  Parallel linear algebra routines


Your calculation utilizes the basis: cc-pVQZ 
       H, B-Ne : Obtained from the ccRepo (grant-hill.group.shef.ac.uk/ccrepo) Feb. 2017
                 T. H. Dunning, Jr., J. Chem. Phys. 90, 1007 (1989)
            He : Obtained from the ccRepo (grant-hill.group.shef.ac.uk/ccrepo) Feb. 2017
                 D. E. Woon, T. H. Dunning, Jr., J. Chem. Phys. 100, 2975 (1994)
  Li-Be, Na-Mg : Obtained from the ccRepo (grant-hill.group.shef.ac.uk/ccrepo) Feb. 2017
                 B. P. Prascher, D. E. Woon, K. A. Peterson, T. H. Dunning, Jr., A. K. Wilson, Theor. Chem. Acc. 128, 69 (2011)
         Al-Ar : Obtained from the ccRepo (grant-hill.group.shef.ac.uk/ccrepo) Feb. 2017
                 D. E. Woon, T. H. Dunning, Jr., J. Chem. Phys. 98, 1358 (1993)
            Ca : Obtained from the Peterson Research Group Website (tyr0.chem.wsu.edu/~kipeters) Feb. 2017
                 J. Koput, K. A. Peterson, J. Phys. Chem. 106, 9595 (2002)
         Sc-Zn : Obtained from the ccRepo (grant-hill.group.shef.ac.uk/ccrepo) Feb. 2017
                 N. B. Balabanov, K. A. Peterson, J. Chem. Phys. 123, 064107 (2005)
                 N. B. Balabanov, K. A. Peterson, J. Chem. Phys. 125, 074110 (2006)
         Ga-Kr : Obtained from the ccRepo (grant-hill.group.shef.ac.uk/ccrepo) Feb. 2017
                 A. K. Wilson, D. E. Woon, K. A. Peterson, T. H. Dunning, Jr., J. Chem. Phys. 110, 7667 (1999)

================================================================================
                                        WARNINGS
                       Please study these warnings very carefully!
================================================================================

Warning: TCutStore was < 0. Adjusted to Thresh (uncritical)

WARNING: MDCI localization requested with randomization but with NAttempts smaller than number of processes
  ===> : Setting NAttempts = Number of parallel processes!

WARNING: Post HF methods need fully converged wavefunctions
  ===> : Setting SCFConvForced true
         You can overwrite this default with %scf ConvForced false 


INFO   : the flag for use of LIBINT has been found!

================================================================================
                                       INPUT FILE
================================================================================
NAME = /scratch/kmoore/input.dat
|  1> # Running OrCa
|  2> 
|  3> % pal nprocs 2 end
|  4> % MaxCore 8000 
|  5> 
|  6> ! CCSD(T) cc-pvqz 
|  7> 
|  8> * xyz 0 1
|  9> O       -3.1403358162      4.5496815570     -0.0014963683                 
| 10> H       -2.1510094674      4.5069001746      0.0010564571                 
| 11> H       -3.4297011993      3.6043303389      0.0549140710  
| 12> *
| 13> 
| 14> 
| 15>                          ****END OF INPUT****
================================================================================

                       ****************************
                       * Single Point Calculation *
                       ****************************

---------------------------------
CARTESIAN COORDINATES (ANGSTROEM)
---------------------------------
  O     -3.140336    4.549682   -0.001496
  H     -2.151009    4.506900    0.001056
  H     -3.429701    3.604330    0.054914

----------------------------
CARTESIAN COORDINATES (A.U.)
----------------------------
  NO LB      ZA    FRAG     MASS         X           Y           Z
   0 O     8.0000    0    15.999   -5.934375    8.597652   -0.002828
   1 H     1.0000    0     1.008   -4.064819    8.516807    0.001996
   2 H     1.0000    0     1.008   -6.481196    6.811197    0.103773

--------------------------------
INTERNAL COORDINATES (ANGSTROEM)
--------------------------------
 O      0   0   0     0.000000000000     0.00000000     0.00000000
 H      1   0   0     0.990254203741     0.00000000     0.00000000
 H      1   2   0     0.990254203809   104.51001130     0.00000000

---------------------------
INTERNAL COORDINATES (A.U.)
---------------------------
 O      0   0   0     0.000000000000     0.00000000     0.00000000
 H      1   0   0     1.871309248036     0.00000000     0.00000000
 H      1   2   0     1.871309248164   104.51001130     0.00000000

---------------------
BASIS SET INFORMATION
---------------------
There are 2 groups of distinct atoms

 Group   1 Type O   : 21s6p3d2f1g contracted to 5s4p3d2f1g pattern {99111/3111/111/11/1}
 Group   2 Type H   : 6s3p2d1f contracted to 4s3p2d1f pattern {3111/111/11/1}

Atom   0O    basis set group =>   1
Atom   1H    basis set group =>   2
Atom   2H    basis set group =>   2


           ************************************************************
           *        Program running with 2 parallel MPI-processes     *
           *              working on a common directory               *
           ************************************************************
------------------------------------------------------------------------------
                           ORCA GTO INTEGRAL CALCULATION
------------------------------------------------------------------------------

                         BASIS SET STATISTICS AND STARTUP INFO

 # of primitive gaussian shells          ...   57
 # of primitive gaussian functions       ...  141
 # of contracted shells                  ...   35
 # of contracted basis functions         ...  115
 Highest angular momentum                ...    4
 Maximum contraction depth               ...    9
 Integral package used                   ... LIBINT
 Integral threshhold            Thresh   ...  1.000e-10
 Primitive cut-off              TCut     ...  1.000e-11


------------------------------ INTEGRAL EVALUATION ----------------------------


 * One electron integrals 
 Pre-screening matrix                    ... done
 Shell pair data                         ... done (   0.000 sec)



           ************************************************************
           *        Program running with 2 parallel MPI-processes     *
           *              working on a common directory               *
           ************************************************************
-------------------------------------------------------------------------------
                                 ORCA SCF
-------------------------------------------------------------------------------

------------
SCF SETTINGS
------------
Hamiltonian:
 Ab initio Hamiltonian  Method          .... Hartree-Fock(GTOs)


General Settings:
 Integral files         IntName         .... /scratch/kmoore/input
 Hartree-Fock type      HFTyp           .... RHF
 Total Charge           Charge          ....    0
 Multiplicity           Mult            ....    1
 Number of Electrons    NEL             ....   10
 Basis Dimension        Dim             ....  115
 Nuclear Repulsion      ENuc            ....      8.8880641539 Eh

Convergence Acceleration:
 DIIS                   CNVDIIS         .... on
   Start iteration      DIISMaxIt       ....    12
   Startup error        DIISStart       ....  0.200000
   # of expansion vecs  DIISMaxEq       ....     5
   Bias factor          DIISBfac        ....   1.050
   Max. coefficient     DIISMaxC        ....  10.000
 Newton-Raphson         CNVNR           .... off
 SOSCF                  CNVSOSCF        .... on
   Start iteration      SOSCFMaxIt      ....   150
   Startup grad/error   SOSCFStart      ....  0.003300
 Level Shifting         CNVShift        .... on
   Level shift para.    LevelShift      ....    0.2500
   Turn off err/grad.   ShiftErr        ....    0.0010
 Zerner damping         CNVZerner       .... off
 Static damping         CNVDamp         .... on
   Fraction old density DampFac         ....    0.7000
   Max. Damping (<1)    DampMax         ....    0.9800
   Min. Damping (>=0)   DampMin         ....    0.0000
   Turn off err/grad.   DampErr         ....    0.1000
 Fernandez-Rico         CNVRico         .... off

SCF Procedure:
 Maximum # iterations   MaxIter         ....   125
 SCF integral mode      SCFMode         .... Direct
   Integral package                     .... LIBINT
 Reset frequeny         DirectResetFreq ....    20
 Integral Threshold     Thresh          ....  1.000e-10 Eh
 Primitive CutOff       TCut            ....  1.000e-11 Eh

Convergence Tolerance:
 Convergence Check Mode ConvCheckMode   .... Total+1el-Energy
 Convergence forced     ConvForced      .... 1
 Energy Change          TolE            ....  1.000e-06 Eh
 1-El. energy change                    ....  1.000e-03 Eh
 Orbital Gradient       TolG            ....  5.000e-05
 Orbital Rotation angle TolX            ....  5.000e-05
 DIIS Error             TolErr          ....  1.000e-06


Diagonalization of the overlap matrix:
Smallest eigenvalue                        ... 4.872e-04
Time for diagonalization                   ...    0.066 sec
Threshold for overlap eigenvalues          ... 1.000e-08
Number of eigenvalues below threshold      ... 0
Time for construction of square roots      ...    0.001 sec
Total time needed                          ...    0.067 sec

-------------------
DFT GRID GENERATION
-------------------

General Integration Accuracy     IntAcc      ...  4.340
Radial Grid Type                 RadialGrid  ... Gauss-Chebyshev
Angular Grid (max. acc.)         AngularGrid ... Lebedev-110
Angular grid pruning method      GridPruning ... 3 (G Style)
Weight generation scheme         WeightScheme... Becke
Basis function cutoff            BFCut       ...    1.0000e-10
Integration weight cutoff        WCut        ...    1.0000e-14
Grids for H and He will be reduced by one unit

# of grid points (after initial pruning)     ...   3304 (   0.0 sec)
# of grid points (after weights+screening)   ...   3268 (   0.0 sec)
nearest neighbour list constructed           ...    0.0 sec
Grid point re-assignment to atoms done       ...    0.0 sec
Grid point division into batches done        ...    0.0 sec
Reduced shell lists constructed in    0.0 sec

Total number of grid points                  ...     3268
Total number of batches                      ...       53
Average number of points per batch           ...       61
Average number of grid points per atom       ...     1089
Average number of shells per batch           ...    29.89 (85.41%)
Average number of basis functions per batch  ...    98.32 (85.50%)
Average number of large shells per batch     ...    27.54 (92.11%)
Average number of large basis fcns per batch ...    90.54 (92.08%)
Maximum spatial batch extension              ...  16.41, 21.07, 25.65 au
Average spatial batch extension              ...   2.80,  3.21,  3.30 au

Time for grid setup =    0.014 sec

------------------------------
INITIAL GUESS: MODEL POTENTIAL
------------------------------
Loading Hartree-Fock densities                     ... done
Calculating cut-offs                               ... done
Setting up the integral package                    ... done
Initializing the effective Hamiltonian             ... done
Starting the Coulomb interaction                   ... done (   0.0 sec)
Reading the grid                                   ... done
Mapping shells                                     ... done
Starting the XC term evaluation                    ... done (   0.0 sec)
Transforming the Hamiltonian                       ... done (   0.0 sec)
Diagonalizing the Hamiltonian                      ... done (   0.0 sec)
Back transforming the eigenvectors                 ... done (   0.0 sec)
Now organizing SCF variables                       ... done
                      ------------------
                      INITIAL GUESS DONE (   0.1 sec)
                      ------------------
--------------
SCF ITERATIONS
--------------
ITER       Energy         Delta-E        Max-DP      RMS-DP      [F,P]     Damp
               ***  Starting incremental Fock matrix formation  ***
  0    -75.9581457408   0.000000000000 0.02598203  0.00074187  0.3993371 0.7000
  1    -75.9990366553  -0.040890914527 0.01959234  0.00051819  0.2360017 0.7000
                               ***Turning on DIIS***
  2    -76.0201673437  -0.021130688370 0.01458812  0.00030212  0.1315414 0.7000
  3    -76.1863070409  -0.166139697277 0.03714099  0.00058756  0.0748247 0.0000
  4    -76.0460891106   0.140217930354 0.00557783  0.00014395  0.0129903 0.0000
  5    -76.0642796454  -0.018190534832 0.00245289  0.00007651  0.0036874 0.0000
                      *** Initiating the SOSCF procedure ***
                           *** Shutting down DIIS ***
                      *** Re-Reading the Fockian *** 
                      *** Removing any level shift *** 
ITER      Energy       Delta-E        Grad      Rot      Max-DP    RMS-DP
  6    -76.06039857   0.0038810714  0.000988  0.000988  0.001323  0.000042
               *** Restarting incremental Fock matrix formation ***
  7    -76.06048913  -0.0000905511  0.000253  0.000366  0.000622  0.000015
                 **** Energy Check signals convergence ****
              ***Rediagonalizing the Fockian in SOSCF/NRSCF***

               *****************************************************
               *                     SUCCESS                       *
               *           SCF CONVERGED AFTER   8 CYCLES          *
               *****************************************************


----------------
TOTAL SCF ENERGY
----------------

Total Energy       :          -76.06048976 Eh           -2069.71115 eV

Components:
Nuclear Repulsion  :            8.88806415 Eh             241.85652 eV
Electronic Energy  :          -84.94855391 Eh           -2311.56767 eV
One Electron Energy:         -122.54454488 Eh           -3334.60659 eV
Two Electron Energy:           37.59599097 Eh            1023.03892 eV

Virial components:
Potential Energy   :         -151.94496496 Eh           -4134.63270 eV
Kinetic Energy     :           75.88447521 Eh            2064.92155 eV
Virial Ratio       :            2.00231951


---------------
SCF CONVERGENCE
---------------

  Last Energy change         ...   -6.3101e-07  Tolerance :   1.0000e-06
  Last MAX-Density change    ...    3.2587e-04  Tolerance :   1.0000e-05
  Last RMS-Density change    ...    8.9327e-06  Tolerance :   1.0000e-06
  Last Orbital Gradient      ...    1.1533e-04  Tolerance :   5.0000e-05
  Last Orbital Rotation      ...    2.7982e-04  Tolerance :   5.0000e-05

             **** THE GBW FILE WAS UPDATED (/scratch/kmoore/input.gbw) ****
             **** DENSITY FILE WAS UPDATED (/scratch/kmoore/input.scfp.tmp) ****
             **** ENERGY FILE WAS UPDATED (/scratch/kmoore/input.en.tmp) ****
----------------
ORBITAL ENERGIES
----------------

  NO   OCC          E(Eh)            E(eV) 
   0   2.0000     -20.565432      -559.6139 
   1   2.0000      -1.333051       -36.2742 
   2   2.0000      -0.696635       -18.9564 
   3   2.0000      -0.575643       -15.6640 
   4   2.0000      -0.505486       -13.7550 
   5   0.0000       0.114165         3.1066 
   6   0.0000       0.168879         4.5954 
   7   0.0000       0.439888        11.9700 
   8   0.0000       0.464043        12.6272 
   9   0.0000       0.488622        13.2961 
  10   0.0000       0.584201        15.8969 
  11   0.0000       0.601145        16.3580 
  12   0.0000       0.610711        16.6183 
  13   0.0000       0.652289        17.7497 
  14   0.0000       0.715522        19.4703 
  15   0.0000       0.855155        23.2699 
  16   0.0000       0.908990        24.7349 
  17   0.0000       1.095067        29.7983 
  18   0.0000       1.139497        31.0073 
  19   0.0000       1.353829        36.8396 
  20   0.0000       1.417263        38.5657 
  21   0.0000       1.475757        40.1574 
  22   0.0000       1.485014        40.4093 
  23   0.0000       1.583919        43.1006 
  24   0.0000       1.676768        45.6272 
  25   0.0000       1.906153        51.8691 
  26   0.0000       2.066866        56.2423 
  27   0.0000       2.184793        59.4512 
  28   0.0000       2.283437        62.1355 
  29   0.0000       2.351802        63.9958 
  30   0.0000       2.420202        65.8570 
  31   0.0000       2.471871        67.2630 
  32   0.0000       2.515056        68.4382 
  33   0.0000       2.560566        69.6766 
  34   0.0000       2.563952        69.7687 
  35   0.0000       2.632950        71.6462 
  36   0.0000       2.660632        72.3995 
  37   0.0000       2.822314        76.7991 
  38   0.0000       2.847404        77.4818 
  39   0.0000       3.044831        82.8541 
  40   0.0000       3.101116        84.3856 
  41   0.0000       3.256751        88.6207 
  42   0.0000       3.358006        91.3760 
  43   0.0000       3.396803        92.4317 
  44   0.0000       3.588942        97.6601 
  45   0.0000       3.849496       104.7501 
  46   0.0000       3.960857       107.7804 
  47   0.0000       4.143712       112.7561 
  48   0.0000       4.208444       114.5176 
  49   0.0000       4.231113       115.1344 
  50   0.0000       4.415206       120.1439 
  51   0.0000       4.493596       122.2770 
  52   0.0000       4.585934       124.7896 
  53   0.0000       4.670239       127.0837 
  54   0.0000       4.807073       130.8071 
  55   0.0000       4.840182       131.7081 
  56   0.0000       5.292599       144.0190 
  57   0.0000       5.362202       145.9129 
  58   0.0000       5.987601       162.9309 
  59   0.0000       6.078382       165.4012 
  60   0.0000       6.211523       169.0241 
  61   0.0000       6.266173       170.5112 
  62   0.0000       6.604231       179.7103 
  63   0.0000       6.727775       183.0721 
  64   0.0000       6.980100       189.9382 
  65   0.0000       7.204948       196.0566 
  66   0.0000       7.264904       197.6881 
  67   0.0000       7.335443       199.6076 
  68   0.0000       7.424383       202.0277 
  69   0.0000       7.460616       203.0137 
  70   0.0000       7.470667       203.2872 
  71   0.0000       7.571090       206.0198 
  72   0.0000       8.002562       217.7608 
  73   0.0000       8.029043       218.4814 
  74   0.0000       8.099860       220.4084 
  75   0.0000       8.100598       220.4285 
  76   0.0000       8.180720       222.6087 
  77   0.0000       8.254057       224.6043 
  78   0.0000       8.259395       224.7496 
  79   0.0000       8.315739       226.2828 
  80   0.0000       8.399269       228.5557 
  81   0.0000       8.570689       233.2203 
  82   0.0000       8.763641       238.4708 
  83   0.0000       8.800267       239.4674 
  84   0.0000       8.849439       240.8055 
  85   0.0000       9.099430       247.6081 
  86   0.0000       9.233195       251.2480 
  87   0.0000       9.294339       252.9118 
  88   0.0000      10.032177       272.9894 
  89   0.0000      10.152020       276.2505 
  90   0.0000      10.167588       276.6741 
  91   0.0000      10.387781       282.6659 
  92   0.0000      10.593643       288.2677 
  93   0.0000      10.663377       290.1653 
  94   0.0000      10.704263       291.2778 
  95   0.0000      11.154296       303.5238 
  96   0.0000      11.309482       307.7466 
  97   0.0000      11.536459       313.9230 
  98   0.0000      11.628309       316.4224 
  99   0.0000      11.636433       316.6434 
 100   0.0000      11.847690       322.3920 
 101   0.0000      12.010649       326.8264 
 102   0.0000      12.193701       331.8075 
 103   0.0000      12.286898       334.3435 
 104   0.0000      12.319219       335.2230 
 105   0.0000      12.431718       338.2843 
 106   0.0000      13.465166       366.4058 
 107   0.0000      13.471024       366.5652 
 108   0.0000      14.049632       382.3099 
 109   0.0000      14.389891       391.5688 
 110   0.0000      14.434267       392.7764 
 111   0.0000      14.521637       395.1538 
 112   0.0000      16.224271       441.4849 
 113   0.0000      16.583432       451.2581 
 114   0.0000      43.991536      1197.0706 

                    ********************************
                    * MULLIKEN POPULATION ANALYSIS *
                    ********************************

-----------------------
MULLIKEN ATOMIC CHARGES
-----------------------
   0 O :   -0.551959
   1 H :    0.275979
   2 H :    0.275980
Sum of atomic charges:   -0.0000000

--------------------------------
MULLIKEN REDUCED ORBITAL CHARGES
--------------------------------
  0 O s       :     3.791212  s :     3.791212
      pz      :     1.914195  p :     4.734957
      px      :     1.351070
      py      :     1.469692
      dz2     :     0.005749  d :     0.024107
      dxz     :     0.000687
      dyz     :     0.001461
      dx2y2   :     0.014201
      dxy     :     0.002009
      f0      :     0.000177  f :     0.001604
      f+1     :     0.000485
      f-1     :     0.000421
      f+2     :     0.000008
      f-2     :     0.000016
      f+3     :     0.000477
      f-3     :     0.000020
      g0      :     0.000009  g :     0.000079
      g+1     :     0.000001
      g-1     :     0.000002
      g+2     :     0.000016
      g-2     :     0.000002
      g+3     :     0.000003
      g-3     :     0.000000
      g+4     :     0.000024
      g-4     :     0.000021
  1 H s       :     0.630417  s :     0.630417
      pz      :     0.035638  p :     0.082414
      px      :     0.023441
      py      :     0.023335
      dz2     :     0.000410  d :     0.010045
      dxz     :     0.004764
      dyz     :    -0.000002
      dx2y2   :     0.001493
      dxy     :     0.003379
      f0      :     0.000214  f :     0.001145
      f+1     :     0.000086
      f-1     :     0.000033
      f+2     :     0.000324
      f-2     :     0.000001
      f+3     :     0.000132
      f-3     :     0.000355
  2 H s       :     0.630416  s :     0.630416
      pz      :     0.035660  p :     0.082414
      px      :     0.017322
      py      :     0.029432
      dz2     :     0.000444  d :     0.010045
      dxz     :     0.000534
      dyz     :     0.004205
      dx2y2   :     0.003539
      dxy     :     0.001323
      f0      :     0.000209  f :     0.001145
      f+1     :     0.000037
      f-1     :     0.000091
      f+2     :     0.000216
      f-2     :     0.000108
      f+3     :     0.000150
      f-3     :     0.000333


                     *******************************
                     * LOEWDIN POPULATION ANALYSIS *
                     *******************************

----------------------
LOEWDIN ATOMIC CHARGES
----------------------
   0 O :    0.747345
   1 H :   -0.373673
   2 H :   -0.373673

-------------------------------
LOEWDIN REDUCED ORBITAL CHARGES
-------------------------------
  0 O s       :     3.064639  s :     3.064639
      pz      :     1.536942  p :     4.125127
      px      :     1.251874
      py      :     1.336311
      dz2     :     0.008070  d :     0.053614
      dxz     :     0.000942
      dyz     :     0.001947
      dx2y2   :     0.031028
      dxy     :     0.011627
      f0      :     0.001544  f :     0.008673
      f+1     :     0.000585
      f-1     :     0.000466
      f+2     :     0.000059
      f-2     :     0.000204
      f+3     :     0.002983
      f-3     :     0.002832
      g0      :     0.000012  g :     0.000603
      g+1     :     0.000046
      g-1     :     0.000085
      g+2     :     0.000048
      g-2     :     0.000050
      g+3     :     0.000244
      g-3     :     0.000020
      g+4     :     0.000039
      g-4     :     0.000058
  1 H s       :     0.699055  s :     0.699055
      pz      :     0.137713  p :     0.444616
      px      :     0.200752
      py      :     0.106150
      dz2     :     0.013847  d :     0.193781
      dxz     :     0.074763
      dyz     :     0.000151
      dx2y2   :     0.039955
      dxy     :     0.065065
      f0      :     0.005902  f :     0.036220
      f+1     :     0.002832
      f-1     :     0.000844
      f+2     :     0.009933
      f-2     :     0.000099
      f+3     :     0.004873
      f-3     :     0.011737
  2 H s       :     0.699055  s :     0.699055
      pz      :     0.138081  p :     0.444616
      px      :     0.097173
      py      :     0.209362
      dz2     :     0.014302  d :     0.193781
      dxz     :     0.006478
      dyz     :     0.068252
      dx2y2   :     0.058716
      dxy     :     0.046032
      f0      :     0.005750  f :     0.036220
      f+1     :     0.000964
      f-1     :     0.002972
      f+2     :     0.006967
      f-2     :     0.003043
      f+3     :     0.006175
      f-3     :     0.010349


                      *****************************
                      * MAYER POPULATION ANALYSIS *
                      *****************************

  NA   - Mulliken gross atomic population
  ZA   - Total nuclear charge
  QA   - Mulliken gross atomic charge
  VA   - Mayer's total valence
  BVA  - Mayer's bonded valence
  FA   - Mayer's free valence

  ATOM       NA         ZA         QA         VA         BVA        FA
  0 O      8.5520     8.0000    -0.5520     1.9725     1.9725     0.0000
  1 H      0.7240     1.0000     0.2760     0.9988     0.9988    -0.0000
  2 H      0.7240     1.0000     0.2760     0.9988     0.9988     0.0000

  Mayer bond orders larger than 0.1
B(  0-O ,  1-H ) :   0.9862 B(  0-O ,  2-H ) :   0.9862 

-------
TIMINGS
-------

Total SCF time: 0 days 0 hours 0 min 6 sec 

Total time                  ....       6.442 sec
Sum of individual times     ....       6.360 sec  ( 98.7%)

Fock matrix formation       ....       6.174 sec  ( 95.8%)
Diagonalization             ....       0.021 sec  (  0.3%)
Density matrix formation    ....       0.006 sec  (  0.1%)
Population analysis         ....       0.004 sec  (  0.1%)
Initial guess               ....       0.111 sec  (  1.7%)
Orbital Transformation      ....       0.000 sec  (  0.0%)
Orbital Orthonormalization  ....       0.000 sec  (  0.0%)
DIIS solution               ....       0.022 sec  (  0.3%)
SOSCF solution              ....       0.008 sec  (  0.1%)


           ************************************************************
           *        Program running with 2 parallel MPI-processes     *
           *              working on a common directory               *
           ************************************************************


------------------------------------------------------------------------------- 
                              ORCA-MATRIX DRIVEN CI                            
------------------------------------------------------------------------------- 

--------------------------------
AUTOMATIC CHOICE OF INCORE LEVEL
--------------------------------

Memory available                           ...   4000.00 MB
Memory needed for S+T                      ...      2.77 MB
Memory needed for J+K                      ...      5.56 MB
Memory needed for DIIS                     ...     38.77 MB
Memory needed for 3-ext                    ...     40.62 MB
Memory needed for 4-ext                    ...    563.59 MB
Memory needed for triples                  ...     50.77 MB
 -> Final InCoreLevel    ... 5
 -> check shows that triples correction can be computed


Wavefunction type
-----------------
Correlation treatment                      ...      CCSD     
Single excitations                         ... ON
Orbital optimization                       ... OFF
Calculation of Z vector                    ... OFF
Calculation of Brueckner orbitals          ... OFF
Perturbative triple excitations            ... ON
Calculation of F12 correction              ... OFF
Frozen core treatment                      ... chemical core (2 el)
Reference Wavefunction                     ... RHF
  Internal Orbitals:     1 ...    4 (  4 MO's/  8 electrons)
  Virtual  Orbitals:     5 ...  114 (110 MO's              )
Number of AO's                             ...    115
Number of electrons                        ...     10
Number of correlated electrons             ...      8

Algorithmic settings
--------------------
Integral transformation                    ... AO direct full transformation
K(C) Formation                             ... FULL-MO TRAFO
Maximum number of iterations               ...        50
Convergence tolerance (max. residuum)      ... 2.500e-05
Level shift for amplitude update           ... 2.000e-01
Maximum number of DIIS vectors             ...         7
DIIS turned on at iteration                ...         0
Damping before turning on DIIS             ...     0.500
Damping after turning on DIIS              ...     0.000
Pair specific amplitude update             ... OFF
Natural orbital iterations                 ... OFF
Perturbative natural orbital generation    ... OFF
Printlevel                                 ... 2

Memory handling:
----------------
Maximum memory for working arrays          ...   4000 MB
Data storage in matrix containers          ... UNCOMPRESSED
Data type for integral storage             ... DOUBLE
In-Core Storage of quantities:
   Amplitudes+Sigma Vector      ... YES
   J+K operators                ... YES
   DIIS vectors                 ... YES
   3-external integrals         ... YES
   4-external integrals         ... YES


Initializing the integral package          ... done
Warning: Triples are to be computed - forcing virtual orbital re-canonicalization

--------------------------
CLOSED-SHELL FOCK OPERATOR
--------------------------

<ss|ss>:         4186 b            5 skpd (  0.1%)    0.003 s ( 0.001 ms/b)
<ss|sp>:        11830 b            6 skpd (  0.1%)    0.009 s ( 0.001 ms/b)
<ss|sd>:         8281 b            3 skpd (  0.0%)    0.007 s ( 0.001 ms/b)
<ss|sf>:         4732 b            1 skpd (  0.0%)    0.006 s ( 0.001 ms/b)
<ss|sg>:         1183 b            1 skpd (  0.1%)    0.002 s ( 0.002 ms/b)
<ss|pp>:         5005 b            1 skpd (  0.0%)    0.003 s ( 0.001 ms/b)
<ss|pd>:         6370 b            2 skpd (  0.0%)    0.004 s ( 0.001 ms/b)
<ss|pf>:         3640 b            0 skpd (  0.0%)    0.004 s ( 0.001 ms/b)
<ss|pg>:          910 b            0 skpd (  0.0%)    0.002 s ( 0.002 ms/b)
<ss|dd>:         2548 b            1 skpd (  0.0%)    0.002 s ( 0.001 ms/b)
<ss|df>:         2548 b            0 skpd (  0.0%)    0.004 s ( 0.001 ms/b)
<ss|dg>:          637 b            0 skpd (  0.0%)    0.001 s ( 0.002 ms/b)
<ss|ff>:          910 b            0 skpd (  0.0%)    0.002 s ( 0.002 ms/b)
<ss|fg>:          364 b            0 skpd (  0.0%)    0.001 s ( 0.003 ms/b)
<ss|gg>:           91 b            0 skpd (  0.0%)    0.001 s ( 0.010 ms/b)
<sp|sp>:         8515 b            3 skpd (  0.0%)    0.005 s ( 0.001 ms/b)
<sp|sd>:        11830 b            2 skpd (  0.0%)    0.008 s ( 0.001 ms/b)
<sp|sf>:         6760 b            0 skpd (  0.0%)    0.008 s ( 0.001 ms/b)
<sp|sg>:         1690 b            0 skpd (  0.0%)    0.003 s ( 0.002 ms/b)
<sp|pp>:         7150 b            2 skpd (  0.0%)    0.005 s ( 0.001 ms/b)
<sp|pd>:         9100 b            2 skpd (  0.0%)    0.009 s ( 0.001 ms/b)
<sp|pf>:         5200 b            0 skpd (  0.0%)    0.007 s ( 0.001 ms/b)
<sp|pg>:         1300 b            0 skpd (  0.0%)    0.003 s ( 0.002 ms/b)
<sp|dd>:         3640 b            0 skpd (  0.0%)    0.005 s ( 0.001 ms/b)
<sp|df>:         3640 b            0 skpd (  0.0%)    0.008 s ( 0.002 ms/b)
<sp|dg>:          910 b            0 skpd (  0.0%)    0.003 s ( 0.003 ms/b)
<sp|ff>:         1300 b            0 skpd (  0.0%)    0.004 s ( 0.003 ms/b)
<sp|fg>:          520 b            0 skpd (  0.0%)    0.002 s ( 0.005 ms/b)
<sp|gg>:          130 b            0 skpd (  0.0%)    0.002 s ( 0.014 ms/b)
<sd|sd>:         4186 b            0 skpd (  0.0%)    0.005 s ( 0.001 ms/b)
<sd|sf>:         4732 b            0 skpd (  0.0%)    0.009 s ( 0.002 ms/b)
<sd|sg>:         1183 b            0 skpd (  0.0%)    0.004 s ( 0.003 ms/b)
<sd|pp>:         5005 b            0 skpd (  0.0%)    0.006 s ( 0.001 ms/b)
<sd|pd>:         6370 b            0 skpd (  0.0%)    0.012 s ( 0.002 ms/b)
<sd|pf>:         3640 b            0 skpd (  0.0%)    0.009 s ( 0.003 ms/b)
<sd|pg>:          910 b            0 skpd (  0.0%)    0.004 s ( 0.004 ms/b)
<sd|dd>:         2548 b            0 skpd (  0.0%)    0.008 s ( 0.003 ms/b)
<sd|df>:         2548 b            0 skpd (  0.0%)    0.012 s ( 0.005 ms/b)
<sd|dg>:          637 b            0 skpd (  0.0%)    0.005 s ( 0.008 ms/b)
<sd|ff>:          910 b            0 skpd (  0.0%)    0.007 s ( 0.008 ms/b)
<sd|fg>:          364 b            0 skpd (  0.0%)    0.004 s ( 0.011 ms/b)
<sd|gg>:           91 b            0 skpd (  0.0%)    0.003 s ( 0.034 ms/b)
<sf|sf>:         1378 b            0 skpd (  0.0%)    0.006 s ( 0.004 ms/b)
<sf|sg>:          676 b            0 skpd (  0.0%)    0.004 s ( 0.006 ms/b)
<sf|pp>:         2860 b            0 skpd (  0.0%)    0.006 s ( 0.002 ms/b)
<sf|pd>:         3640 b            0 skpd (  0.0%)    0.012 s ( 0.003 ms/b)
<sf|pf>:         2080 b            0 skpd (  0.0%)    0.010 s ( 0.005 ms/b)
<sf|pg>:          520 b            0 skpd (  0.0%)    0.005 s ( 0.009 ms/b)
<sf|dd>:         1456 b            0 skpd (  0.0%)    0.007 s ( 0.005 ms/b)
<sf|df>:         1456 b            0 skpd (  0.0%)    0.013 s ( 0.009 ms/b)
<sf|dg>:          364 b            0 skpd (  0.0%)    0.005 s ( 0.015 ms/b)
<sf|ff>:          520 b            0 skpd (  0.0%)    0.009 s ( 0.018 ms/b)
<sf|fg>:          208 b            0 skpd (  0.0%)    0.005 s ( 0.023 ms/b)
<sf|gg>:           52 b            0 skpd (  0.0%)    0.004 s ( 0.075 ms/b)
<sg|sg>:           91 b            0 skpd (  0.0%)    0.001 s ( 0.015 ms/b)
<sg|pp>:          715 b            0 skpd (  0.0%)    0.003 s ( 0.004 ms/b)
<sg|pd>:          910 b            0 skpd (  0.0%)    0.005 s ( 0.006 ms/b)
<sg|pf>:          520 b            0 skpd (  0.0%)    0.004 s ( 0.009 ms/b)
<sg|pg>:          130 b            0 skpd (  0.0%)    0.003 s ( 0.020 ms/b)
<sg|dd>:          364 b            0 skpd (  0.0%)    0.003 s ( 0.009 ms/b)
<sg|df>:          364 b            0 skpd (  0.0%)    0.006 s ( 0.017 ms/b)
<sg|dg>:           91 b            0 skpd (  0.0%)    0.003 s ( 0.033 ms/b)
<sg|ff>:          130 b            0 skpd (  0.0%)    0.004 s ( 0.033 ms/b)
<sg|fg>:           52 b            0 skpd (  0.0%)    0.003 s ( 0.049 ms/b)
<sg|gg>:           13 b            0 skpd (  0.0%)    0.002 s ( 0.149 ms/b)
<pp|pp>:         1540 b            1 skpd (  0.1%)    0.002 s ( 0.001 ms/b)
<pp|pd>:         3850 b            0 skpd (  0.0%)    0.008 s ( 0.002 ms/b)
<pp|pf>:         2200 b            0 skpd (  0.0%)    0.007 s ( 0.003 ms/b)
<pp|pg>:          550 b            0 skpd (  0.0%)    0.003 s ( 0.005 ms/b)
<pp|dd>:         1540 b            0 skpd (  0.0%)    0.005 s ( 0.003 ms/b)
<pp|df>:         1540 b            0 skpd (  0.0%)    0.008 s ( 0.005 ms/b)
<pp|dg>:          385 b            0 skpd (  0.0%)    0.003 s ( 0.008 ms/b)
<pp|ff>:          550 b            0 skpd (  0.0%)    0.005 s ( 0.008 ms/b)
<pp|fg>:          220 b            0 skpd (  0.0%)    0.003 s ( 0.012 ms/b)
<pp|gg>:           55 b            0 skpd (  0.0%)    0.002 s ( 0.038 ms/b)
<pd|pd>:         2485 b            0 skpd (  0.0%)    0.010 s ( 0.004 ms/b)
<pd|pf>:         2800 b            0 skpd (  0.0%)    0.015 s ( 0.005 ms/b)
<pd|pg>:          700 b            0 skpd (  0.0%)    0.006 s ( 0.008 ms/b)
<pd|dd>:         1960 b            0 skpd (  0.0%)    0.013 s ( 0.007 ms/b)
<pd|df>:         1960 b            0 skpd (  0.0%)    0.025 s ( 0.013 ms/b)
<pd|dg>:          490 b            0 skpd (  0.0%)    0.010 s ( 0.020 ms/b)
<pd|ff>:          700 b            0 skpd (  0.0%)    0.014 s ( 0.020 ms/b)
<pd|fg>:          280 b            0 skpd (  0.0%)    0.008 s ( 0.028 ms/b)
<pd|gg>:           70 b            0 skpd (  0.0%)    0.006 s ( 0.086 ms/b)
<pf|pf>:          820 b            0 skpd (  0.0%)    0.008 s ( 0.010 ms/b)
<pf|pg>:          400 b            0 skpd (  0.0%)    0.006 s ( 0.015 ms/b)
<pf|dd>:         1120 b            0 skpd (  0.0%)    0.011 s ( 0.010 ms/b)
<pf|df>:         1120 b            0 skpd (  0.0%)    0.021 s ( 0.019 ms/b)
<pf|dg>:          280 b            0 skpd (  0.0%)    0.008 s ( 0.027 ms/b)
<pf|ff>:          400 b            0 skpd (  0.0%)    0.013 s ( 0.031 ms/b)
<pf|fg>:          160 b            0 skpd (  0.0%)    0.007 s ( 0.043 ms/b)
<pf|gg>:           40 b            0 skpd (  0.0%)    0.005 s ( 0.131 ms/b)
<pg|pg>:           55 b            0 skpd (  0.0%)    0.002 s ( 0.029 ms/b)
<pg|dd>:          280 b            0 skpd (  0.0%)    0.005 s ( 0.017 ms/b)
<pg|df>:          280 b            0 skpd (  0.0%)    0.008 s ( 0.029 ms/b)
<pg|dg>:           70 b            0 skpd (  0.0%)    0.004 s ( 0.057 ms/b)
<pg|ff>:          100 b            0 skpd (  0.0%)    0.005 s ( 0.047 ms/b)
<pg|fg>:           40 b            0 skpd (  0.0%)    0.003 s ( 0.078 ms/b)
<pg|gg>:           10 b            0 skpd (  0.0%)    0.002 s ( 0.216 ms/b)
<dd|dd>:          406 b            0 skpd (  0.0%)    0.006 s ( 0.014 ms/b)
<dd|df>:          784 b            0 skpd (  0.0%)    0.017 s ( 0.022 ms/b)
<dd|dg>:          196 b            0 skpd (  0.0%)    0.007 s ( 0.035 ms/b)
<dd|ff>:          280 b            0 skpd (  0.0%)    0.010 s ( 0.037 ms/b)
<dd|fg>:          112 b            0 skpd (  0.0%)    0.005 s ( 0.049 ms/b)
<dd|gg>:           28 b            0 skpd (  0.0%)    0.004 s ( 0.146 ms/b)
<df|df>:          406 b            0 skpd (  0.0%)    0.016 s ( 0.039 ms/b)
<df|dg>:          196 b            0 skpd (  0.0%)    0.011 s ( 0.058 ms/b)
<df|ff>:          280 b            0 skpd (  0.0%)    0.018 s ( 0.064 ms/b)
<df|fg>:          112 b            0 skpd (  0.0%)    0.010 s ( 0.087 ms/b)
<df|gg>:           28 b            0 skpd (  0.0%)    0.007 s ( 0.262 ms/b)
<dg|dg>:           28 b            0 skpd (  0.0%)    0.003 s ( 0.104 ms/b)
<dg|ff>:           70 b            0 skpd (  0.0%)    0.006 s ( 0.090 ms/b)
<dg|fg>:           28 b            0 skpd (  0.0%)    0.004 s ( 0.152 ms/b)
<dg|gg>:            7 b            0 skpd (  0.0%)    0.003 s ( 0.432 ms/b)
<ff|ff>:           55 b            0 skpd (  0.0%)    0.007 s ( 0.133 ms/b)
<ff|fg>:           40 b            0 skpd (  0.0%)    0.007 s ( 0.187 ms/b)
<ff|gg>:           10 b            0 skpd (  0.0%)    0.006 s ( 0.602 ms/b)
<fg|fg>:           10 b            0 skpd (  0.0%)    0.004 s ( 0.365 ms/b)
<fg|gg>:            4 b            0 skpd (  0.0%)    0.003 s ( 0.847 ms/b)
<gg|gg>:            1 b            0 skpd (  0.0%)    0.002 s ( 1.892 ms/b)
Time needed for Fock operator              ...            0.857 sec
Reference energy                           ...    -76.060489912

------------------------------
PARTIAL COULOMB TRANSFORMATION
------------------------------

Transformation type                        ... one-operator
Dimension of the basis                     ...  115
Number of internal MOs                     ...  114 (1-114)
Pair cutoff                                ... 0.000e+00 Eh
Number of AO pairs included in the trafo   ... 6670
Total Number of distinct AO pairs          ... 6670
Memory devoted for trafo                   ... 4000.0 MB 
Max. Number of MO pairs treated together   ... 78603      
Max. Number of MOs treated per batch       ...  683      
Number Format for Storage                  ... Double (8 Byte)
AO-integral source                         ... DIRECT
Integral package used                      ... LIBINT
<ss|**>: 
Starting integral evaluation:
       57330 b        0 skpd     0.065 s (  0.001 ms/b)
<sp|**>:        81900 b        0 skpd     0.135 s (  0.002 ms/b)
<sd|**>:        57330 b        0 skpd     0.162 s (  0.003 ms/b)
<sf|**>:        32760 b        0 skpd     0.161 s (  0.005 ms/b)
<sg|**>:         8190 b        0 skpd     0.069 s (  0.008 ms/b)
<pp|**>:        34650 b        0 skpd     0.129 s (  0.004 ms/b)
<pd|**>:        44100 b        0 skpd     0.277 s (  0.006 ms/b)
<pf|**>:        25200 b        0 skpd     0.239 s (  0.009 ms/b)
<pg|**>:         6300 b        0 skpd     0.090 s (  0.014 ms/b)
<dd|**>:        17640 b        0 skpd     0.187 s (  0.011 ms/b)
<df|**>:        17640 b        0 skpd     0.303 s (  0.017 ms/b)
<dg|**>:         4410 b        0 skpd     0.120 s (  0.027 ms/b)
<ff|**>:         6300 b        0 skpd     0.163 s (  0.026 ms/b)
<fg|**>:         2520 b        0 skpd     0.098 s (  0.039 ms/b)
<gg|**>:          630 b        0 skpd     0.059 s (  0.094 ms/b)
Closing buffer AOJ ( 0.16 GB; CompressionRatio= 1.00)
Collecting buffer AOJ 
    ... done with AO integral generation
Number of MO pairs included in the trafo   ... 6555
    ... Now sorting integrals
IBATCH = 1 of  1
Closing buffer JAO ( 0.16 GB; CompressionRatio= 1.00)
Collecting buffer JAO 
TOTAL TIME for half transformation         ...     3.512 sec
AO-integral generation                     ...     1.126 sec
Half transformation                        ...     1.142 sec
J-integral sorting                         ...     1.199 sec

-------------------------- SECOND HALF TRANSFORMATION -------------------------
Formation of (pq|rs)                       ... ok (     1.031 sec)
Integral sorting                           ... ok (     1.738 sec)

------------------
CLOSED SHELL GUESS
------------------

Initial guess performed in     0.002 sec
E(0)                                       ...    -76.060489912
E(MP2)                                     ...     -0.285205291
Initial E(tot)                             ...    -76.345695203
<T|T>                                      ...      0.065486512
Number of pairs included                   ... 10
Total number of pairs                      ... 10

------------------------------------------------
                  RHF COUPLED CLUSTER ITERATIONS
------------------------------------------------

Number of amplitudes to be optimized       ... 121440

Iter       E(tot)           E(Corr)          Delta-E          Residual     Time
  0    -76.345695203     -0.285205291      0.000000000      0.015246785    0.36
                           *** Turning on DIIS ***
  1    -76.342437433     -0.281947521      0.003257771      0.005115199    1.02
  2    -76.347279965     -0.286790053     -0.004842532      0.001672706    1.01
  3    -76.348340223     -0.287850311     -0.001060258      0.000600990    1.05
  4    -76.348556647     -0.288066735     -0.000216423      0.000132095    1.02
  5    -76.348578760     -0.288088848     -0.000022114      0.000064523    1.02
  6    -76.348581263     -0.288091351     -0.000002503      0.000035803    1.04
  7    -76.348581189     -0.288091277      0.000000074      0.000015434    1.02
               --- The Coupled-Cluster iterations have converged ---

----------------------
COUPLED CLUSTER ENERGY
----------------------

E(0)                                       ...    -76.060489912
E(CORR)                                    ...     -0.288091277
E(TOT)                                     ...    -76.348581189
Singles Norm <S|S>**1/2                    ...      0.022089429
T1 diagnostic                              ...      0.007809793

------------------
LARGEST AMPLITUDES
------------------
   4-> 10   4-> 10       0.042502
   3->  9   3->  9       0.024547
   2-> 12   2-> 12       0.023883
   2->  7   2->  7       0.021815
   4-> 10   2-> 12       0.021428
   4-> 10   3->  9       0.020392
   2->  6   2-> 12       0.018541
   2-> 12   2->  6       0.018541
   3->  7   3->  7       0.018256
   3->  9   2-> 12       0.017868
   4-> 10   2->  6       0.017187
   2->  9   2->  9       0.016171
   2->  6   2->  6       0.016048
   2->  7   2-> 12       0.014951
   2-> 12   2->  7       0.014951
   4-> 10   1-> 15       0.014898


        !!!!!!!!!!!!!!!!!!!!!!!!!!!!!!!!!!!!!!!!!!!!!!!!!!!!!!!!!!!!!!!!!!!!!!!!!! 
        !  Warning: Densities are linearized densities !                         !
        !!!!!!!!!!!!!!!!!!!!!!!!!!!!!!!!!!!!!!!!!!!!!!!!!!!!!!!!!!!!!!!!!!!!!!!!!! 

Trace of internal density part =     -0.138281122
Trace of external density part =      0.138281122
----------------------
RHF TRIPLES CORRECTION (Algorithm 1)
----------------------

Multiplier for the singles contribution    ...      1.000000000

10% done
20% done
30% done
40% done
50% done
60% done
70% done
80% done

Triples Correction (T)                     ...     -0.009313682
Final correlation energy                   ...     -0.297404959
E(CCSD)                                    ...    -76.348581189
E(CCSD(T))                                 ...    -76.357894871

NORM  =      1.069628504 sqrt=     1.034228458
W(HF) =      0.934904031
------------------------------------------------------------------------------
                           ORCA POPULATION ANALYSIS
------------------------------------------------------------------------------
Input electron density              ... /scratch/kmoore/input.mdcip.tmp
BaseName (.gbw .S,...)              ... /scratch/kmoore/input

                    ********************************
                    * MULLIKEN POPULATION ANALYSIS *
                    ********************************

-----------------------
MULLIKEN ATOMIC CHARGES
-----------------------
   0 O :   -0.501173
   1 H :    0.250587
   2 H :    0.250587
Sum of atomic charges:   -0.0000000

--------------------------------
MULLIKEN REDUCED ORBITAL CHARGES
--------------------------------
  0 O s       :     3.761403  s :     3.761403
      pz      :     1.885539  p :     4.682625
      px      :     1.340174
      py      :     1.456911
      dz2     :     0.011619  d :     0.051217
      dxz     :     0.006987
      dyz     :     0.007849
      dx2y2   :     0.017499
      dxy     :     0.007263
      f0      :     0.000743  f :     0.005329
      f+1     :     0.001007
      f-1     :     0.000952
      f+2     :     0.000561
      f-2     :     0.000580
      f+3     :     0.000937
      f-3     :     0.000549
      g0      :     0.000070  g :     0.000600
      g+1     :     0.000061
      g-1     :     0.000062
      g+2     :     0.000076
      g-2     :     0.000060
      g+3     :     0.000060
      g-3     :     0.000058
      g+4     :     0.000078
      g-4     :     0.000075
  1 H s       :     0.638159  s :     0.638159
      pz      :     0.043629  p :     0.098735
      px      :     0.026428
      py      :     0.028678
      dz2     :     0.000613  d :     0.011239
      dxz     :     0.004851
      dyz     :     0.000143
      dx2y2   :     0.001813
      dxy     :     0.003819
      f0      :     0.000230  f :     0.001280
      f+1     :     0.000107
      f-1     :     0.000044
      f+2     :     0.000342
      f-2     :     0.000027
      f+3     :     0.000142
      f-3     :     0.000389
  2 H s       :     0.638159  s :     0.638159
      pz      :     0.043651  p :     0.098735
      px      :     0.020305
      py      :     0.034779
      dz2     :     0.000645  d :     0.011239
      dxz     :     0.000731
      dyz     :     0.004243
      dx2y2   :     0.004135
      dxy     :     0.001485
      f0      :     0.000225  f :     0.001280
      f+1     :     0.000048
      f-1     :     0.000112
      f+2     :     0.000239
      f-2     :     0.000129
      f+3     :     0.000165
      f-3     :     0.000363


                     *******************************
                     * LOEWDIN POPULATION ANALYSIS *
                     *******************************

----------------------
LOEWDIN ATOMIC CHARGES
----------------------
   0 O :    0.753657
   1 H :   -0.376829
   2 H :   -0.376829

-------------------------------
LOEWDIN REDUCED ORBITAL CHARGES
-------------------------------
  0 O s       :     3.060641  s :     3.060641
      pz      :     1.521902  p :     4.089808
      px      :     1.243529
      py      :     1.324378
      dz2     :     0.014971  d :     0.081600
      dxz     :     0.006292
      dyz     :     0.007287
      dx2y2   :     0.037216
      dxy     :     0.015833
      f0      :     0.001972  f :     0.013037
      f+1     :     0.001312
      f-1     :     0.001159
      f+2     :     0.000628
      f-2     :     0.000702
      f+3     :     0.003854
      f-3     :     0.003410
      g0      :     0.000090  g :     0.001256
      g+1     :     0.000112
      g-1     :     0.000148
      g+2     :     0.000136
      g-2     :     0.000114
      g+3     :     0.000293
      g-3     :     0.000079
      g+4     :     0.000136
      g-4     :     0.000148
  1 H s       :     0.694780  s :     0.694780
      pz      :     0.143812  p :     0.454681
      px      :     0.202654
      py      :     0.108215
      dz2     :     0.014453  d :     0.190599
      dxz     :     0.071420
      dyz     :     0.000395
      dx2y2   :     0.041280
      dxy     :     0.063050
      f0      :     0.005720  f :     0.036769
      f+1     :     0.003232
      f-1     :     0.000854
      f+2     :     0.009598
      f-2     :     0.000186
      f+3     :     0.005476
      f-3     :     0.011702
  2 H s       :     0.694780  s :     0.694780
      pz      :     0.144184  p :     0.454681
      px      :     0.097694
      py      :     0.212803
      dz2     :     0.014865  d :     0.190599
      dxz     :     0.006558
      dyz     :     0.065124
      dx2y2   :     0.058600
      dxy     :     0.045452
      f0      :     0.005582  f :     0.036769
      f+1     :     0.001002
      f-1     :     0.003319
      f+2     :     0.006759
      f-2     :     0.003020
      f+3     :     0.006595
      f-3     :     0.010492


                      *****************************
                      * MAYER POPULATION ANALYSIS *
                      *****************************

  NA   - Mulliken gross atomic population
  ZA   - Total nuclear charge
  QA   - Mulliken gross atomic charge
  VA   - Mayer's total valence
  BVA  - Mayer's bonded valence
  FA   - Mayer's free valence

  ATOM       NA         ZA         QA         VA         BVA        FA
  0 O      8.5012     8.0000    -0.5012     2.3308     1.9255     0.4053
  1 H      0.7494     1.0000     0.2506     1.0449     0.9765     0.0683
  2 H      0.7494     1.0000     0.2506     1.0449     0.9765     0.0683

  Mayer bond orders larger than 0.1
B(  0-O ,  1-H ) :   0.9628 B(  0-O ,  2-H ) :   0.9628 



------------------------------------------------------------------------------- 
                                     TIMINGS                                   
------------------------------------------------------------------------------- 


Total execution time                   ...       20.134 sec

Fock Matrix Formation                  ...        0.857 sec (  4.3%)
Initial Guess                          ...        0.002 sec (  0.0%)
DIIS Solver                            ...        0.037 sec (  0.2%)
State Vector Update                    ...        0.002 sec (  0.0%)
Sigma-vector construction              ...        7.500 sec ( 37.3%)
  <0|H|D>                              ...        0.001 sec (  0.0% of sigma)
  <D|H|D>(0-ext)                       ...        0.013 sec (  0.2% of sigma)
  <D|H|D>(2-ext Fock)                  ...        0.010 sec (  0.1% of sigma)
  <D|H|D>(2-ext)                       ...        0.163 sec (  2.2% of sigma)
  <D|H|D>(4-ext)                       ...        1.825 sec ( 24.3% of sigma)
  <D|H|D>(4-ext-corr)                  ...        0.417 sec (  5.6% of sigma)
  <S|H|0>                              ...        0.001 sec (  0.0% of sigma)
  <S|H|S>                              ...        0.004 sec (  0.0% of sigma)
  <S|H|D>(1-ext)                       ...        0.005 sec (  0.1% of sigma)
  <D|H|S>(1-ext)                       ...        0.015 sec (  0.2% of sigma)
  <S|H|D>(3-ext)                       ...        0.153 sec (  2.0% of sigma)
  Fock-dressing                        ...        4.631 sec ( 61.7% of sigma)
  (ik|jl)-dressing                     ...        0.008 sec (  0.1% of sigma)
  (ij|ab),(ia|jb)-dressing             ...        0.222 sec (  3.0% of sigma)
  Pair energies                        ...        0.003 sec (  0.0% of sigma)
Total Time for computing (T)           ...        0.931 sec (  4.6% of ALL)
  I/O of integral and amplitudes       ...        0.065 sec (  7.0% of (T))
  N**6 sorting step                    ...        0.139 sec ( 15.0% of (T))
  External N**7 contributions          ...        0.617 sec ( 66.3% of (T))
  Internal N**7 contributions          ...        0.045 sec (  4.8% of (T))
  N**6 triples energy contributions    ...        0.065 sec (  6.9% of (T))
One-particle density matrix            ...        0.003 sec (  0.0%)


-------------------------   --------------------
FINAL SINGLE POINT ENERGY       -76.357894870776
-------------------------   --------------------


                            ***************************************
                            *     ORCA property calculations      *
                            ***************************************

                                    ---------------------
                                    Active property flags
                                    ---------------------
   (+) Dipole Moment


------------------------------------------------------------------------------
                       ORCA ELECTRIC PROPERTIES CALCULATION
------------------------------------------------------------------------------

Dipole Moment Calculation                       ... on
Quadrupole Moment Calculation                   ... off
Polarizability Calculation                      ... off
GBWName                                         ... /scratch/kmoore/input.gbw
Electron density file                           ... /scratch/kmoore/input.scfp.tmp
The origin for moment calculation is the CENTER OF MASS  = (-5.860363,  8.493170  0.003407)

-------------
DIPOLE MOMENT
-------------
                                X             Y             Z
Electronic contribution:     -0.12071       0.17040      -0.01017
Nuclear contribution   :      0.58262      -0.82248       0.04908
                        -----------------------------------------
Total Dipole Moment    :      0.46191      -0.65208       0.03891
                        -----------------------------------------
Magnitude (a.u.)       :      0.80006
Magnitude (Debye)      :      2.03358


                           *** MDCI DENSITY ***

------------------------------------------------------------------------------
                       ORCA ELECTRIC PROPERTIES CALCULATION
------------------------------------------------------------------------------

Dipole Moment Calculation                       ... on
Quadrupole Moment Calculation                   ... off
Polarizability Calculation                      ... off
GBWName                                         ... /scratch/kmoore/input.gbw
Electron density file                           ... /scratch/kmoore/input.mdcip.tmp
The origin for moment calculation is the CENTER OF MASS  = (-5.860363,  8.493170  0.003407)

-------------
DIPOLE MOMENT
-------------
                                X             Y             Z
Electronic contribution:     -0.15094       0.21308      -0.01272
Nuclear contribution   :      0.58262      -0.82248       0.04908
                        -----------------------------------------
Total Dipole Moment    :      0.43168      -0.60940       0.03636
                        -----------------------------------------
Magnitude (a.u.)       :      0.74769
Magnitude (Debye)      :      1.90047


Timings for individual modules:

Sum of individual times         ...       34.439 sec (=   0.574 min)
GTO integral calculation        ...        2.865 sec (=   0.048 min)   8.3 %
SCF iterations                  ...        8.819 sec (=   0.147 min)  25.6 %
MDCI module                     ...       22.755 sec (=   0.379 min)  66.1 %
                             ****ORCA TERMINATED NORMALLY****
TOTAL RUN TIME: 0 days 0 hours 0 minutes 37 seconds 226 msec
